# vtk DataFile Version 3.0
Karman Output
ASCII
DATASET RECTILINEAR_GRID
DIMENSIONS 101 101 1
X_COORDINATES 101 float
   0.000000000000e+00   9.900990099010e-03   1.980198019802e-02   2.970297029703e-02   3.960396039604e-02   4.950495049505e-02   5.940594059406e-02   6.930693069307e-02   7.920792079208e-02   8.910891089109e-02   9.900990099010e-02   1.089108910891e-01   1.188118811881e-01   1.287128712871e-01   1.386138613861e-01   1.485148514851e-01   1.584158415842e-01   1.683168316832e-01   1.782178217822e-01   1.881188118812e-01   1.980198019802e-01   2.079207920792e-01   2.178217821782e-01   2.277227722772e-01   2.376237623762e-01   2.475247524752e-01   2.574257425743e-01   2.673267326733e-01   2.772277227723e-01   2.871287128713e-01   2.970297029703e-01   3.069306930693e-01   3.168316831683e-01   3.267326732673e-01   3.366336633663e-01   3.465346534653e-01   3.564356435644e-01   3.663366336634e-01   3.762376237624e-01   3.861386138614e-01   3.960396039604e-01   4.059405940594e-01   4.158415841584e-01   4.257425742574e-01   4.356435643564e-01   4.455445544554e-01   4.554455445545e-01   4.653465346535e-01   4.752475247525e-01   4.851485148515e-01   4.950495049505e-01   5.049504950495e-01   5.148514851485e-01   5.247524752475e-01   5.346534653465e-01   5.445544554455e-01   5.544554455446e-01   5.643564356436e-01   5.742574257426e-01   5.841584158416e-01   5.940594059406e-01   6.039603960396e-01   6.138613861386e-01   6.237623762376e-01   6.336633663366e-01   6.435643564356e-01   6.534653465347e-01   6.633663366337e-01   6.732673267327e-01   6.831683168317e-01   6.930693069307e-01   7.029702970297e-01   7.128712871287e-01   7.227722772277e-01   7.326732673267e-01   7.425742574257e-01   7.524752475248e-01   7.623762376238e-01   7.722772277228e-01   7.821782178218e-01   7.920792079208e-01   8.019801980198e-01   8.118811881188e-01   8.217821782178e-01   8.316831683168e-01   8.415841584158e-01   8.514851485149e-01   8.613861386139e-01   8.712871287129e-01   8.811881188119e-01   8.910891089109e-01   9.009900990099e-01   9.108910891089e-01   9.207920792079e-01   9.306930693069e-01   9.405940594059e-01   9.504950495050e-01   9.603960396040e-01   9.702970297030e-01   9.801980198020e-01   9.900990099010e-01
Y_COORDINATES 101 float
   0.000000000000e+00   9.900990099010e-03   1.980198019802e-02   2.970297029703e-02   3.960396039604e-02   4.950495049505e-02   5.940594059406e-02   6.930693069307e-02   7.920792079208e-02   8.910891089109e-02   9.900990099010e-02   1.089108910891e-01   1.188118811881e-01   1.287128712871e-01   1.386138613861e-01   1.485148514851e-01   1.584158415842e-01   1.683168316832e-01   1.782178217822e-01   1.881188118812e-01   1.980198019802e-01   2.079207920792e-01   2.178217821782e-01   2.277227722772e-01   2.376237623762e-01   2.475247524752e-01   2.574257425743e-01   2.673267326733e-01   2.772277227723e-01   2.871287128713e-01   2.970297029703e-01   3.069306930693e-01   3.168316831683e-01   3.267326732673e-01   3.366336633663e-01   3.465346534653e-01   3.564356435644e-01   3.663366336634e-01   3.762376237624e-01   3.861386138614e-01   3.960396039604e-01   4.059405940594e-01   4.158415841584e-01   4.257425742574e-01   4.356435643564e-01   4.455445544554e-01   4.554455445545e-01   4.653465346535e-01   4.752475247525e-01   4.851485148515e-01   4.950495049505e-01   5.049504950495e-01   5.148514851485e-01   5.247524752475e-01   5.346534653465e-01   5.445544554455e-01   5.544554455446e-01   5.643564356436e-01   5.742574257426e-01   5.841584158416e-01   5.940594059406e-01   6.039603960396e-01   6.138613861386e-01   6.237623762376e-01   6.336633663366e-01   6.435643564356e-01   6.534653465347e-01   6.633663366337e-01   6.732673267327e-01   6.831683168317e-01   6.930693069307e-01   7.029702970297e-01   7.128712871287e-01   7.227722772277e-01   7.326732673267e-01   7.425742574257e-01   7.524752475248e-01   7.623762376238e-01   7.722772277228e-01   7.821782178218e-01   7.920792079208e-01   8.019801980198e-01   8.118811881188e-01   8.217821782178e-01   8.316831683168e-01   8.415841584158e-01   8.514851485149e-01   8.613861386139e-01   8.712871287129e-01   8.811881188119e-01   8.910891089109e-01   9.009900990099e-01   9.108910891089e-01   9.207920792079e-01   9.306930693069e-01   9.405940594059e-01   9.504950495050e-01   9.603960396040e-01   9.702970297030e-01   9.801980198020e-01   9.900990099010e-01
Z_COORDINATES 1 float
  0.000000000000e+00
POINT_DATA 10201
VECTORS E_field float
  0.000000000000e+00 0.000000000000e+00 0.000000000000e+00
  0.000000000000e+00 0.000000000000e+00 0.000000000000e+00
  0.000000000000e+00 0.000000000000e+00 0.000000000000e+00
  0.000000000000e+00 0.000000000000e+00 0.000000000000e+00
  0.000000000000e+00 0.000000000000e+00 0.000000000000e+00
  0.000000000000e+00 0.000000000000e+00 0.000000000000e+00
  0.000000000000e+00 0.000000000000e+00 0.000000000000e+00
  0.000000000000e+00 0.000000000000e+00 0.000000000000e+00
  0.000000000000e+00 0.000000000000e+00 0.000000000000e+00
  0.000000000000e+00 0.000000000000e+00 0.000000000000e+00
  0.000000000000e+00 0.000000000000e+00 0.000000000000e+00
  0.000000000000e+00 0.000000000000e+00 0.000000000000e+00
  0.000000000000e+00 0.000000000000e+00 0.000000000000e+00
  0.000000000000e+00 0.000000000000e+00 0.000000000000e+00
  0.000000000000e+00 0.000000000000e+00 0.000000000000e+00
  0.000000000000e+00 0.000000000000e+00 0.000000000000e+00
  0.000000000000e+00 0.000000000000e+00 0.000000000000e+00
  0.000000000000e+00 0.000000000000e+00 0.000000000000e+00
  0.000000000000e+00 0.000000000000e+00 0.000000000000e+00
  0.000000000000e+00 0.000000000000e+00 0.000000000000e+00
  0.000000000000e+00 0.000000000000e+00 0.000000000000e+00
  0.000000000000e+00 0.000000000000e+00 0.000000000000e+00
  0.000000000000e+00 0.000000000000e+00 0.000000000000e+00
  0.000000000000e+00 0.000000000000e+00 0.000000000000e+00
  0.000000000000e+00 0.000000000000e+00 0.000000000000e+00
  0.000000000000e+00 0.000000000000e+00 0.000000000000e+00
  0.000000000000e+00 0.000000000000e+00 0.000000000000e+00
  0.000000000000e+00 0.000000000000e+00 0.000000000000e+00
  0.000000000000e+00 0.000000000000e+00 0.000000000000e+00
  0.000000000000e+00 0.000000000000e+00 0.000000000000e+00
  0.000000000000e+00 0.000000000000e+00 0.000000000000e+00
  0.000000000000e+00 0.000000000000e+00 0.000000000000e+00
  0.000000000000e+00 0.000000000000e+00 0.000000000000e+00
  0.000000000000e+00 0.000000000000e+00 0.000000000000e+00
  0.000000000000e+00 0.000000000000e+00 0.000000000000e+00
  0.000000000000e+00 0.000000000000e+00 0.000000000000e+00
  0.000000000000e+00 0.000000000000e+00 0.000000000000e+00
  0.000000000000e+00 0.000000000000e+00 0.000000000000e+00
  0.000000000000e+00 0.000000000000e+00 0.000000000000e+00
  0.000000000000e+00 0.000000000000e+00 0.000000000000e+00
  0.000000000000e+00 0.000000000000e+00 0.000000000000e+00
  0.000000000000e+00 0.000000000000e+00 0.000000000000e+00
  0.000000000000e+00 0.000000000000e+00 0.000000000000e+00
  0.000000000000e+00 0.000000000000e+00 0.000000000000e+00
  0.000000000000e+00 0.000000000000e+00 0.000000000000e+00
  0.000000000000e+00 0.000000000000e+00 0.000000000000e+00
  0.000000000000e+00 0.000000000000e+00 0.000000000000e+00
  0.000000000000e+00 0.000000000000e+00 0.000000000000e+00
  0.000000000000e+00 0.000000000000e+00 0.000000000000e+00
  0.000000000000e+00 0.000000000000e+00 0.000000000000e+00
  0.000000000000e+00 0.000000000000e+00 0.000000000000e+00
  0.000000000000e+00 0.000000000000e+00 0.000000000000e+00
  0.000000000000e+00 0.000000000000e+00 0.000000000000e+00
  0.000000000000e+00 0.000000000000e+00 0.000000000000e+00
  0.000000000000e+00 0.000000000000e+00 0.000000000000e+00
  0.000000000000e+00 0.000000000000e+00 0.000000000000e+00
  0.000000000000e+00 0.000000000000e+00 0.000000000000e+00
  0.000000000000e+00 0.000000000000e+00 0.000000000000e+00
  0.000000000000e+00 0.000000000000e+00 0.000000000000e+00
  0.000000000000e+00 0.000000000000e+00 0.000000000000e+00
  0.000000000000e+00 0.000000000000e+00 0.000000000000e+00
  0.000000000000e+00 0.000000000000e+00 0.000000000000e+00
  0.000000000000e+00 0.000000000000e+00 0.000000000000e+00
  0.000000000000e+00 0.000000000000e+00 0.000000000000e+00
  0.000000000000e+00 0.000000000000e+00 0.000000000000e+00
  0.000000000000e+00 0.000000000000e+00 0.000000000000e+00
  0.000000000000e+00 0.000000000000e+00 0.000000000000e+00
  0.000000000000e+00 0.000000000000e+00 0.000000000000e+00
  0.000000000000e+00 0.000000000000e+00 0.000000000000e+00
  0.000000000000e+00 0.000000000000e+00 0.000000000000e+00
  0.000000000000e+00 0.000000000000e+00 0.000000000000e+00
  0.000000000000e+00 0.000000000000e+00 0.000000000000e+00
  0.000000000000e+00 0.000000000000e+00 0.000000000000e+00
  0.000000000000e+00 0.000000000000e+00 0.000000000000e+00
  0.000000000000e+00 0.000000000000e+00 0.000000000000e+00
  0.000000000000e+00 0.000000000000e+00 0.000000000000e+00
  0.000000000000e+00 0.000000000000e+00 0.000000000000e+00
  0.000000000000e+00 0.000000000000e+00 0.000000000000e+00
  0.000000000000e+00 0.000000000000e+00 0.000000000000e+00
  0.000000000000e+00 0.000000000000e+00 0.000000000000e+00
  0.000000000000e+00 0.000000000000e+00 0.000000000000e+00
  0.000000000000e+00 0.000000000000e+00 0.000000000000e+00
  0.000000000000e+00 0.000000000000e+00 0.000000000000e+00
  0.000000000000e+00 0.000000000000e+00 0.000000000000e+00
  0.000000000000e+00 0.000000000000e+00 0.000000000000e+00
  0.000000000000e+00 0.000000000000e+00 0.000000000000e+00
  0.000000000000e+00 0.000000000000e+00 0.000000000000e+00
  0.000000000000e+00 0.000000000000e+00 0.000000000000e+00
  0.000000000000e+00 0.000000000000e+00 0.000000000000e+00
  0.000000000000e+00 0.000000000000e+00 0.000000000000e+00
  0.000000000000e+00 0.000000000000e+00 0.000000000000e+00
  0.000000000000e+00 0.000000000000e+00 0.000000000000e+00
  0.000000000000e+00 0.000000000000e+00 0.000000000000e+00
  0.000000000000e+00 0.000000000000e+00 0.000000000000e+00
  0.000000000000e+00 0.000000000000e+00 0.000000000000e+00
  0.000000000000e+00 0.000000000000e+00 0.000000000000e+00
  0.000000000000e+00 0.000000000000e+00 0.000000000000e+00
  0.000000000000e+00 0.000000000000e+00 0.000000000000e+00
  0.000000000000e+00 0.000000000000e+00 0.000000000000e+00
  0.000000000000e+00 0.000000000000e+00 0.000000000000e+00
  0.000000000000e+00 0.000000000000e+00 0.000000000000e+00
  0.000000000000e+00 0.000000000000e+00 0.000000000000e+00
  5.288787980810e-02 -5.288787980810e-02 0.000000000000e+00
  5.127860368642e-02 -1.563499001928e-01 0.000000000000e+00
  4.814236464143e-02 -2.530194842935e-01 0.000000000000e+00
  4.366534671907e-02 -3.389722003681e-01 0.000000000000e+00
  3.816019492267e-02 -4.114281326162e-01 0.000000000000e+00
  3.206162553073e-02 -4.693294662571e-01 0.000000000000e+00
  2.587740362877e-02 -5.135745928448e-01 0.000000000000e+00
  2.009933264280e-02 -5.467098402078e-01 0.000000000000e+00
  1.510080337682e-02 -5.721436599339e-01 0.000000000000e+00
  1.105750868809e-02 -5.931219927964e-01 0.000000000000e+00
  7.921238498656e-03 -6.117118903833e-01 0.000000000000e+00
  5.456569621331e-03 -6.279934861949e-01 0.000000000000e+00
  3.326266622041e-03 -6.396814784368e-01 0.000000000000e+00
  1.194355058206e-03 -6.424513498049e-01 0.000000000000e+00
  -1.186726558895e-03 -6.311604640506e-01 0.000000000000e+00
  -3.927115991189e-03 -6.018122561954e-01 0.000000000000e+00
  -6.992974865007e-03 -5.536207688336e-01 0.000000000000e+00
  -1.023196210773e-02 -4.902087141202e-01 0.000000000000e+00
  -1.341471467832e-02 -4.191273524908e-01 0.000000000000e+00
  -1.627928225998e-02 -3.495757732416e-01 0.000000000000e+00
  -1.857171829087e-02 -2.891186435395e-01 0.000000000000e+00
  -2.008048942973e-02 -2.408440151140e-01 0.000000000000e+00
  -2.066355788326e-02 -2.023556176004e-01 0.000000000000e+00
  -2.026661512207e-02 -1.672114503729e-01 0.000000000000e+00
  -1.893094094169e-02 -1.282675340499e-01 0.000000000000e+00
  -1.678998000024e-02 -8.144392098713e-02 0.000000000000e+00
  -1.405427947862e-02 -2.818589484499e-02 0.000000000000e+00
  -1.098500377891e-02 2.451734763214e-02 0.000000000000e+00
  -7.857836864763e-03 6.655701071913e-02 0.000000000000e+00
  -4.922087702869e-03 8.844997599708e-02 0.000000000000e+00
  -2.363007361899e-03 8.472769450636e-02 0.000000000000e+00
  -2.767264149230e-04 5.556148239275e-02 0.000000000000e+00
  1.334413941807e-03 6.142596450667e-03 0.000000000000e+00
  2.543086841848e-03 -5.559004613515e-02 0.000000000000e+00
  3.458746531461e-03 -1.216225140750e-01 0.000000000000e+00
  4.181486942433e-03 -1.857460875093e-01 0.000000000000e+00
  4.764303442513e-03 -2.441034872927e-01 0.000000000000e+00
  5.198181704164e-03 -2.946476592927e-01 0.000000000000e+00
  5.424765550335e-03 -3.362113903578e-01 0.000000000000e+00
  5.368166552194e-03 -3.678146181757e-01 0.000000000000e+00
  4.968894960575e-03 -3.884249401296e-01 0.000000000000e+00
  4.204976408759e-03 -3.970049269891e-01 0.000000000000e+00
  3.096540439543e-03 -3.925884752025e-01 0.000000000000e+00
  1.701754714700e-03 -3.743046441079e-01 0.000000000000e+00
  1.147655489551e-04 -3.414720310354e-01 0.000000000000e+00
  -1.531510121635e-03 -2.939009539054e-01 0.000000000000e+00
  -3.065987431127e-03 -2.323589153384e-01 0.000000000000e+00
  -4.295629408503e-03 -1.589647087033e-01 0.000000000000e+00
  -5.041665922390e-03 -7.726030800374e-02 0.000000000000e+00
  -5.185664963911e-03 8.126809968661e-03 0.000000000000e+00
  -4.705005034245e-03 9.212211005966e-02 0.000000000000e+00
  -3.679583074733e-03 1.699382882121e-01 0.000000000000e+00
  -2.265873964543e-03 2.377105536491e-01 0.000000000000e+00
  -6.515686154587e-04 2.928857508041e-01 0.000000000000e+00
  9.873023027591e-04 3.342761002511e-01 0.000000000000e+00
  2.510036222650e-03 3.617871798984e-01 0.000000000000e+00
  3.813779848268e-03 3.759658388084e-01 0.000000000000e+00
  4.826405912057e-03 3.775951780347e-01 0.000000000000e+00
  5.503768852288e-03 3.674952702196e-01 0.000000000000e+00
  5.836035252130e-03 3.465034585046e-01 0.000000000000e+00
  5.855029938110e-03 3.154749311173e-01 0.000000000000e+00
  5.629319230328e-03 2.752077465197e-01 0.000000000000e+00
  5.240626994430e-03 2.264137665217e-01 0.000000000000e+00
  4.748713450859e-03 1.700054910522e-01 0.000000000000e+00
  4.161395025140e-03 1.078387274457e-01 0.000000000000e+00
  3.424914437666e-03 4.365522257506e-02 0.000000000000e+00
  2.439145147700e-03 -1.641844021900e-02 0.000000000000e+00
  1.090201992085e-03 -6.448871218507e-02 0.000000000000e+00
  -7.127840455840e-04 -9.282333808937e-02 0.000000000000e+00
  -3.008193159293e-03 -9.650278285149e-02 0.000000000000e+00
  -5.765377923762e-03 -7.559357517919e-02 0.000000000000e+00
  -8.881074459767e-03 -3.562711148437e-02 0.000000000000e+00
  -1.218548903785e-02 1.414579301276e-02 0.000000000000e+00
  -1.545410247958e-02 6.418001957498e-02 0.000000000000e+00
  -1.842293205862e-02 1.082980742038e-01 0.000000000000e+00
  -2.080813425274e-02 1.459215476513e-01 0.000000000000e+00
  -2.233298551885e-02 1.818084239162e-01 0.000000000000e+00
  -2.276368384978e-02 2.233840631124e-01 0.000000000000e+00
  -2.194993258387e-02 2.768815674859e-01 0.000000000000e+00
  -1.986054246602e-02 3.440479720451e-01 0.000000000000e+00
  -1.660285896812e-02 4.208653905114e-01 0.000000000000e+00
  -1.241880189473e-02 4.987548196251e-01 0.000000000000e+00
  -7.656435472856e-03 5.675852068461e-01 0.000000000000e+00
  -2.720302667803e-03 6.190730452796e-01 0.000000000000e+00
  1.994210038777e-03 6.491545911200e-01 0.000000000000e+00
  6.174421751606e-03 6.585602318018e-01 0.000000000000e+00
  9.657972200741e-03 6.517022781790e-01 0.000000000000e+00
  1.247440358513e-02 6.346265482406e-01 0.000000000000e+00
  1.484044361244e-02 6.129217251781e-01 0.000000000000e+00
  1.709974322579e-02 5.902079518911e-01 0.000000000000e+00
  1.961821090725e-02 5.674259700849e-01 0.000000000000e+00
  2.266651860486e-02 5.428781842176e-01 0.000000000000e+00
  2.633025660108e-02 5.128905934059e-01 0.000000000000e+00
  3.047919770005e-02 4.729456157284e-01 0.000000000000e+00
  3.480343085345e-02 4.190490342690e-01 0.000000000000e+00
  3.889721505124e-02 3.489615663537e-01 0.000000000000e+00
  4.235479576130e-02 2.629064327456e-01 0.000000000000e+00
  4.484419055766e-02 1.635686698427e-01 0.000000000000e+00
  4.614297976422e-02 5.552867770592e-02 0.000000000000e+00
  0.000000000000e+00 0.000000000000e+00 0.000000000000e+00
  0.000000000000e+00 0.000000000000e+00 0.000000000000e+00
  1.563499001928e-01 -5.127860368642e-02 0.000000000000e+00
  1.516007364742e-01 -1.516007364742e-01 0.000000000000e+00
  1.423601212936e-01 -2.453917937864e-01 0.000000000000e+00
  1.292001422633e-01 -3.289628939225e-01 0.000000000000e+00
  1.130631123668e-01 -3.997952573688e-01 0.000000000000e+00
  9.523875801876e-02 -4.570394177646e-01 0.000000000000e+00
  7.721498693615e-02 -5.016566483528e-01 0.000000000000e+00
  6.041774062709e-02 -5.360524674048e-01 0.000000000000e+00
  4.591667995335e-02 -5.633014427972e-01 0.000000000000e+00
  3.420067516722e-02 -5.862049104583e-01 0.000000000000e+00
  2.510717572126e-02 -6.063992030860e-01 0.000000000000e+00
  1.793240529690e-02 -6.236667341905e-01 0.000000000000e+00
  1.168153309752e-02 -6.356270552426e-01 0.000000000000e+00
  5.370009938218e-03 -6.380623382760e-01 0.000000000000e+00
  -1.720926773970e-03 -6.260774572502e-01 0.000000000000e+00
  -9.900376657671e-03 -5.959754236798e-01 0.000000000000e+00
  -1.905044954216e-02 -5.472416695909e-01 0.000000000000e+00
  -2.870652108505e-02 -4.836927545772e-01 0.000000000000e+00
  -3.818690456896e-02 -4.129801759793e-01 0.000000000000e+00
  -4.672951733438e-02 -3.443157694061e-01 0.000000000000e+00
  -5.361090725592e-02 -2.852048214226e-01 0.000000000000e+00
  -5.823885943788e-02 -2.386211139101e-01 0.000000000000e+00
  -6.021788417814e-02 -2.020164256105e-01 0.000000000000e+00
  -5.938927154851e-02 -1.687761977536e-01 0.000000000000e+00
  -5.584762460156e-02 -1.315801077965e-01 0.000000000000e+00
  -4.993458069537e-02 -8.618535208816e-02 0.000000000000e+00
  -4.220758021028e-02 -3.390716475066e-02 0.000000000000e+00
  -3.337951012392e-02 1.834127175175e-02 0.000000000000e+00
  -2.422821846518e-02 6.045462802666e-02 0.000000000000e+00
  -1.548474949035e-02 8.287314055286e-02 0.000000000000e+00
  -7.721515467682e-03 7.998221558703e-02 0.000000000000e+00
  -1.269388232215e-03 5.176855312983e-02 0.000000000000e+00
  3.809386318716e-03 3.245610806353e-03 0.000000000000e+00
  7.678763666004e-03 -5.777111073731e-02 0.000000000000e+00
  1.062529645380e-02 -1.233036419486e-01 0.000000000000e+00
  1.292608710908e-02 -1.870884906990e-01 0.000000000000e+00
  1.473673670678e-02 -2.451545501957e-01 0.000000000000e+00
  1.604297120363e-02 -2.953367091398e-01 0.000000000000e+00
  1.669149357023e-02 -3.363974467104e-01 0.000000000000e+00
  1.647711893981e-02 -3.673575881751e-01 0.000000000000e+00
  1.523811513630e-02 -3.872436947075e-01 0.000000000000e+00
  1.291715865638e-02 -3.951012973422e-01 0.000000000000e+00
  9.576810228970e-03 -3.900433204049e-01 0.000000000000e+00
  5.390890391887e-03 -3.712690932853e-01 0.000000000000e+00
  6.407694776925e-04 -3.381704717111e-01 0.000000000000e+00
  -4.276422893954e-03 -2.906390451151e-01 0.000000000000e+00
  -8.851443951961e-03 -2.295113256883e-01 0.000000000000e+00
  -1.251257481040e-02 -1.569215254501e-01 0.000000000000e+00
  -1.473253839974e-02 -7.633749109794e-02 0.000000000000e+00
  -1.516268832937e-02 7.778142072305e-03 0.000000000000e+00
  -1.373567303972e-02 9.056310275336e-02 0.000000000000e+00
  -1.068480023197e-02 1.674210007443e-01 0.000000000000e+00
  -6.469183622372e-03 2.345985153675e-01 0.000000000000e+00
  -1.642465578554e-03 2.895567656438e-01 0.000000000000e+00
  3.272264313869e-03 3.310514845375e-01 0.000000000000e+00
  7.853145855826e-03 3.589081800787e-01 0.000000000000e+00
  1.178938333845e-02 3.736048574465e-01 0.000000000000e+00
  1.486216708377e-02 3.758707495177e-01 0.000000000000e+00
  1.693639570706e-02 3.664681071108e-01 0.000000000000e+00
  1.797711634513e-02 3.461576345231e-01 0.000000000000e+00
  1.806867654008e-02 3.157102001762e-01 0.000000000000e+00
  1.739953331649e-02 2.758673313606e-01 0.000000000000e+00
  1.619475970007e-02 2.273476475104e-01 0.000000000000e+00
  1.461656825873e-02 1.711417150329e-01 0.000000000000e+00
  1.268053430675e-02 1.092258558326e-01 0.000000000000e+00
  1.023125571379e-02 4.545385336233e-02 0.000000000000e+00
  6.990286690194e-03 -1.399033269642e-02 0.000000000000e+00
  2.654065759898e-03 -6.123165562384e-02 0.000000000000e+00
  -2.998368112091e-03 -8.862497474208e-02 0.000000000000e+00
  -1.002334061783e-02 -9.138076457991e-02 0.000000000000e+00
  -1.827354952316e-02 -6.970819978125e-02 0.000000000000e+00
  -2.740067942531e-02 -2.926966044428e-02 0.000000000000e+00
  -3.688624628498e-02 2.057832341037e-02 0.000000000000e+00
  -4.608449163096e-02 7.021434796506e-02 0.000000000000e+00
  -5.426729167285e-02 1.134153754346e-01 0.000000000000e+00
  -6.067283162037e-02 1.495949885621e-01 0.000000000000e+00
  -6.456912099260e-02 1.835561236437e-01 0.000000000000e+00
  -6.534126992806e-02 2.228392106512e-01 0.000000000000e+00
  -6.259642666739e-02 2.738678254205e-01 0.000000000000e+00
  -5.626222261101e-02 3.386381199363e-01 0.000000000000e+00
  -4.664687402856e-02 4.134022105398e-01 0.000000000000e+00
  -3.443664284239e-02 4.898237113371e-01 0.000000000000e+00
  -2.062210407828e-02 5.579394099481e-01 0.000000000000e+00
  -6.358453758500e-03 6.095190590528e-01 0.000000000000e+00
  7.225381759026e-03 6.404102291227e-01 0.000000000000e+00
  1.924264803480e-02 6.511071158105e-01 0.000000000000e+00
  2.924594380801e-02 6.456685479480e-01 0.000000000000e+00
  3.734581288348e-02 6.297439780117e-01 0.000000000000e+00
  4.419319035567e-02 6.085908779075e-01 0.000000000000e+00
  5.080139811029e-02 5.856712917937e-01 0.000000000000e+00
  5.824149805683e-02 5.620040625543e-01 0.000000000000e+00
  6.730190551426e-02 5.361913765932e-01 0.000000000000e+00
  7.822766178482e-02 5.049879067636e-01 0.000000000000e+00
  9.062927814078e-02 4.642977449159e-01 0.000000000000e+00
  1.035844178427e-01 4.104175322263e-01 0.000000000000e+00
  1.158794597010e-01 3.412042423404e-01 0.000000000000e+00
  1.262899164578e-01 2.567957192920e-01 0.000000000000e+00
  1.338020080479e-01 1.596778969099e-01 0.000000000000e+00
  1.377273912888e-01 5.419527819134e-02 0.000000000000e+00
  0.000000000000e+00 0.000000000000e+00 0.000000000000e+00
  0.000000000000e+00 0.000000000000e+00 0.000000000000e+00
  2.530194842935e-01 -4.814236464143e-02 0.000000000000e+00
  2.453917937864e-01 -1.423601212936e-01 0.000000000000e+00
  2.305933416845e-01 -2.305933416845e-01 0.000000000000e+00
  2.096081985163e-01 -3.096162238259e-01 0.000000000000e+00
  1.840050326753e-01 -3.774017317279e-01 0.000000000000e+00
  1.558713313159e-01 -4.334748876982e-01 0.000000000000e+00
  1.275607819338e-01 -4.788868579544e-01 0.000000000000e+00
  1.012840868265e-01 -5.157483163868e-01 0.000000000000e+00
  7.866147852457e-02 -5.464819248394e-01 0.000000000000e+00
  6.039138624040e-02 -5.730383313458e-01 0.000000000000e+00
  4.615729369876e-02 -5.962381902109e-01 0.000000000000e+00
  3.480981671785e-02 -6.153054996603e-01 0.000000000000e+00
  2.476151626014e-02 -6.276891171157e-01 0.000000000000e+00
  1.446053069206e-02 -6.293877676755e-01 0.000000000000e+00
  2.794168886986e-03 -6.159947293334e-01 0.000000000000e+00
  -1.068341486680e-02 -5.844011179591e-01 0.000000000000e+00
  -2.572967008449e-02 -5.346196472094e-01 0.000000000000e+00
  -4.155712464189e-02 -4.708312508584e-01 0.000000000000e+00
  -5.706209720576e-02 -4.008563236503e-01 0.000000000000e+00
  -7.105928585741e-02 -3.338998203180e-01 0.000000000000e+00
  -8.246945830518e-02 -2.773292081414e-01 0.000000000000e+00
  -9.044083811745e-02 -2.338973951970e-01 0.000000000000e+00
  -9.441111997597e-02 -2.007908377247e-01 0.000000000000e+00
  -9.413104184100e-02 -1.711104764039e-01 0.000000000000e+00
  -8.967138458330e-02 -1.372471333508e-01 0.000000000000e+00
  -8.142435647752e-02 -9.467839854583e-02 0.000000000000e+00
  -7.009259128936e-02 -4.447288396622e-02 0.000000000000e+00
  -5.664489207562e-02 6.631221667245e-03 0.000000000000e+00
  -4.221854964880e-02 4.858704402571e-02 0.000000000000e+00
  -2.796684384156e-02 7.174554977202e-02 0.000000000000e+00
  -1.487876002666e-02 7.025848853095e-02 0.000000000000e+00
  -3.620900020456e-03 4.378229294564e-02 0.000000000000e+00
  5.543936208963e-03 -3.011739786926e-03 0.000000000000e+00
  1.272622078857e-02 -6.256542206525e-02 0.000000000000e+00
  1.827084694946e-02 -1.270004895587e-01 0.000000000000e+00
  2.255855185881e-02 -1.899801386345e-01 0.000000000000e+00
  2.582588770497e-02 -2.473408876717e-01 0.000000000000e+00
  2.807654214700e-02 -2.967072605500e-01 0.000000000000e+00
  2.911292538705e-02 -3.367118008251e-01 0.000000000000e+00
  2.865673775295e-02 -3.663726716752e-01 0.000000000000e+00
  2.648783205698e-02 -3.848207015380e-01 0.000000000000e+00
  2.253774416854e-02 -3.912532459154e-01 0.000000000000e+00
  1.691997927880e-02 -3.849332582240e-01 0.000000000000e+00
  9.925948395312e-03 -3.651992043942e-01 0.000000000000e+00
  2.025721038529e-03 -3.315900119292e-01 0.000000000000e+00
  -6.119509865844e-03 -2.841570811882e-01 0.000000000000e+00
  -1.366984100238e-02 -2.238679369859e-01 0.000000000000e+00
  -1.969289700574e-02 -1.528807268891e-01 0.000000000000e+00
  -2.333677844789e-02 -7.451444429582e-02 0.000000000000e+00
  -2.404110381889e-02 7.089570799152e-03 0.000000000000e+00
  -2.169624457402e-02 8.747979959279e-02 0.000000000000e+00
  -1.667307586182e-02 1.624302623471e-01 0.000000000000e+00
  -9.707374830957e-03 2.284079359520e-01 0.000000000000e+00
  -1.695888217362e-03 2.829091401138e-01 0.000000000000e+00
  6.501370621019e-03 3.245871209625e-01 0.000000000000e+00
  1.417842741394e-02 3.531146048946e-01 0.000000000000e+00
  2.080750853722e-02 3.688331135869e-01 0.000000000000e+00
  2.601502250465e-02 3.723621952452e-01 0.000000000000e+00
  2.956799352683e-02 3.643494613613e-01 0.000000000000e+00
  3.139353181872e-02 3.454100210235e-01 0.000000000000e+00
  3.160153662954e-02 3.161582484137e-01 0.000000000000e+00
  3.045774830834e-02 2.772322144724e-01 0.000000000000e+00
  2.828125249311e-02 2.293640336883e-01 0.000000000000e+00
  2.529687662214e-02 1.736878960691e-01 0.000000000000e+00
  2.151430981972e-02 1.123982754861e-01 0.000000000000e+00
  1.670060218148e-02 4.954441989941e-02 0.000000000000e+00
  1.046542592606e-02 -8.604753978845e-03 0.000000000000e+00
  2.422357707183e-03 -5.423794520616e-02 0.000000000000e+00
  -7.641492753597e-03 -7.990240083457e-02 0.000000000000e+00
  -1.964900880761e-02 -8.107084993160e-02 0.000000000000e+00
  -3.319956200427e-02 -5.821735232952e-02 0.000000000000e+00
  -4.761164330338e-02 -1.722129669568e-02 0.000000000000e+00
  -6.200920478201e-02 3.241308799965e-02 0.000000000000e+00
  -7.541267330205e-02 8.098129724162e-02 0.000000000000e+00
  -8.680899801578e-02 1.222275509136e-01 0.000000000000e+00
  -9.520148693169e-02 1.555808419465e-01 0.000000000000e+00
  -9.966382630783e-02 1.859288990077e-01 0.000000000000e+00
  -9.942648153416e-02 2.210012394491e-01 0.000000000000e+00
  -9.400264685990e-02 2.675371186878e-01 0.000000000000e+00
  -8.332825721395e-02 3.279602329667e-01 0.000000000000e+00
  -6.786789338658e-02 3.990043850996e-01 0.000000000000e+00
  -4.863834306250e-02 4.727817552671e-01 0.000000000000e+00
  -2.712024308920e-02 5.396487272807e-01 0.000000000000e+00
  -5.053753295093e-03 5.914796016063e-01 0.000000000000e+00
  1.585996075619e-02 6.239521370004e-01 0.000000000000e+00
  3.430200468955e-02 6.371058977237e-01 0.000000000000e+00
  4.964513607400e-02 6.343233388771e-01 0.000000000000e+00
  6.213178186794e-02 6.205026722132e-01 0.000000000000e+00
  7.283529505733e-02 6.002812930445e-01 0.000000000000e+00
  8.337442044058e-02 5.768335435188e-01 0.000000000000e+00
  9.543782297678e-02 5.513383083465e-01 0.000000000000e+00
  1.102574257454e-01 5.229771205750e-01 0.000000000000e+00
  1.282033471862e-01 4.893304850703e-01 0.000000000000e+00
  1.486358906961e-01 4.471210067433e-01 0.000000000000e+00
  1.700531993605e-01 3.932218220326e-01 0.000000000000e+00
  1.904605514414e-01 3.256975585950e-01 0.000000000000e+00
  2.078129081469e-01 2.445395895749e-01 0.000000000000e+00
  2.203818547248e-01 1.518529884590e-01 0.000000000000e+00
  2.269671579114e-01 5.150950021477e-02 0.000000000000e+00
  0.000000000000e+00 0.000000000000e+00 0.000000000000e+00
  0.000000000000e+00 0.000000000000e+00 0.000000000000e+00
  3.389722003681e-01 -4.366534671907e-02 0.000000000000e+00
  3.289628939225e-01 -1.292001422633e-01 0.000000000000e+00
  3.096162238259e-01 -2.096081985163e-01 0.000000000000e+00
  2.823312827472e-01 -2.823312827472e-01 0.000000000000e+00
  2.492527614421e-01 -3.460049856605e-01 0.000000000000e+00
  2.131340266344e-01 -4.006191975985e-01 0.000000000000e+00
  1.769850568301e-01 -4.472830288677e-01 0.000000000000e+00
  1.435544316258e-01 -4.876448251619e-01 0.000000000000e+00
  1.147908846474e-01 -5.231992607840e-01 0.000000000000e+00
  9.146344403611e-02 -5.547234625058e-01 0.000000000000e+00
  7.307587598154e-02 -5.819313984547e-01 0.000000000000e+00
  5.811229294952e-02 -6.033012314036e-01 0.000000000000e+00
  4.453793473170e-02 -6.160707266968e-01 0.000000000000e+00
  3.039626022619e-02 -6.165634980208e-01 0.000000000000e+00
  1.432105709140e-02 -6.010774340483e-01 0.000000000000e+00
  -4.174234365735e-03 -5.673455380333e-01 0.000000000000e+00
  -2.467990618500e-02 -5.161233000983e-01 0.000000000000e+00
  -4.610186745083e-02 -4.520781821463e-01 0.000000000000e+00
  -6.699393194281e-02 -3.832123553065e-01 0.000000000000e+00
  -8.588786289296e-02 -3.186526690599e-01 0.000000000000e+00
  -1.015299043780e-01 -2.655241454667e-01 0.000000000000e+00
  -1.129897932027e-01 -2.262711892348e-01 0.000000000000e+00