# vtk DataFile Version 3.0
Karman Output
ASCII
DATASET RECTILINEAR_GRID
DIMENSIONS 101 101 1
X_COORDINATES 101 float
   0.000000000000e+00   9.900990099010e-03   1.980198019802e-02   2.970297029703e-02   3.960396039604e-02   4.950495049505e-02   5.940594059406e-02   6.930693069307e-02   7.920792079208e-02   8.910891089109e-02   9.900990099010e-02   1.089108910891e-01   1.188118811881e-01   1.287128712871e-01   1.386138613861e-01   1.485148514851e-01   1.584158415842e-01   1.683168316832e-01   1.782178217822e-01   1.881188118812e-01   1.980198019802e-01   2.079207920792e-01   2.178217821782e-01   2.277227722772e-01   2.376237623762e-01   2.475247524752e-01   2.574257425743e-01   2.673267326733e-01   2.772277227723e-01   2.871287128713e-01   2.970297029703e-01   3.069306930693e-01   3.168316831683e-01   3.267326732673e-01   3.366336633663e-01   3.465346534653e-01   3.564356435644e-01   3.663366336634e-01   3.762376237624e-01   3.861386138614e-01   3.960396039604e-01   4.059405940594e-01   4.158415841584e-01   4.257425742574e-01   4.356435643564e-01   4.455445544554e-01   4.554455445545e-01   4.653465346535e-01   4.752475247525e-01   4.851485148515e-01   4.950495049505e-01   5.049504950495e-01   5.148514851485e-01   5.247524752475e-01   5.346534653465e-01   5.445544554455e-01   5.544554455446e-01   5.643564356436e-01   5.742574257426e-01   5.841584158416e-01   5.940594059406e-01   6.039603960396e-01   6.138613861386e-01   6.237623762376e-01   6.336633663366e-01   6.435643564356e-01   6.534653465347e-01   6.633663366337e-01   6.732673267327e-01   6.831683168317e-01   6.930693069307e-01   7.029702970297e-01   7.128712871287e-01   7.227722772277e-01   7.326732673267e-01   7.425742574257e-01   7.524752475248e-01   7.623762376238e-01   7.722772277228e-01   7.821782178218e-01   7.920792079208e-01   8.019801980198e-01   8.118811881188e-01   8.217821782178e-01   8.316831683168e-01   8.415841584158e-01   8.514851485149e-01   8.613861386139e-01   8.712871287129e-01   8.811881188119e-01   8.910891089109e-01   9.009900990099e-01   9.108910891089e-01   9.207920792079e-01   9.306930693069e-01   9.405940594059e-01   9.504950495050e-01   9.603960396040e-01   9.702970297030e-01   9.801980198020e-01   9.900990099010e-01
Y_COORDINATES 101 float
   0.000000000000e+00   9.900990099010e-03   1.980198019802e-02   2.970297029703e-02   3.960396039604e-02   4.950495049505e-02   5.940594059406e-02   6.930693069307e-02   7.920792079208e-02   8.910891089109e-02   9.900990099010e-02   1.089108910891e-01   1.188118811881e-01   1.287128712871e-01   1.386138613861e-01   1.485148514851e-01   1.584158415842e-01   1.683168316832e-01   1.782178217822e-01   1.881188118812e-01   1.980198019802e-01   2.079207920792e-01   2.178217821782e-01   2.277227722772e-01   2.376237623762e-01   2.475247524752e-01   2.574257425743e-01   2.673267326733e-01   2.772277227723e-01   2.871287128713e-01   2.970297029703e-01   3.069306930693e-01   3.168316831683e-01   3.267326732673e-01   3.366336633663e-01   3.465346534653e-01   3.564356435644e-01   3.663366336634e-01   3.762376237624e-01   3.861386138614e-01   3.960396039604e-01   4.059405940594e-01   4.158415841584e-01   4.257425742574e-01   4.356435643564e-01   4.455445544554e-01   4.554455445545e-01   4.653465346535e-01   4.752475247525e-01   4.851485148515e-01   4.950495049505e-01   5.049504950495e-01   5.148514851485e-01   5.247524752475e-01   5.346534653465e-01   5.445544554455e-01   5.544554455446e-01   5.643564356436e-01   5.742574257426e-01   5.841584158416e-01   5.940594059406e-01   6.039603960396e-01   6.138613861386e-01   6.237623762376e-01   6.336633663366e-01   6.435643564356e-01   6.534653465347e-01   6.633663366337e-01   6.732673267327e-01   6.831683168317e-01   6.930693069307e-01   7.029702970297e-01   7.128712871287e-01   7.227722772277e-01   7.326732673267e-01   7.425742574257e-01   7.524752475248e-01   7.623762376238e-01   7.722772277228e-01   7.821782178218e-01   7.920792079208e-01   8.019801980198e-01   8.118811881188e-01   8.217821782178e-01   8.316831683168e-01   8.415841584158e-01   8.514851485149e-01   8.613861386139e-01   8.712871287129e-01   8.811881188119e-01   8.910891089109e-01   9.009900990099e-01   9.108910891089e-01   9.207920792079e-01   9.306930693069e-01   9.405940594059e-01   9.504950495050e-01   9.603960396040e-01   9.702970297030e-01   9.801980198020e-01   9.900990099010e-01
Z_COORDINATES 1 float
  0.000000000000e+00
POINT_DATA 10201
VECTORS E_field float
  0.000000000000e+00 0.000000000000e+00 0.000000000000e+00
  0.000000000000e+00 0.000000000000e+00 0.000000000000e+00
  0.000000000000e+00 0.000000000000e+00 0.000000000000e+00
  0.000000000000e+00 0.000000000000e+00 0.000000000000e+00
  0.000000000000e+00 0.000000000000e+00 0.000000000000e+00
  0.000000000000e+00 0.000000000000e+00 0.000000000000e+00
  0.000000000000e+00 0.000000000000e+00 0.000000000000e+00
  0.000000000000e+00 0.000000000000e+00 0.000000000000e+00
  0.000000000000e+00 0.000000000000e+00 0.000000000000e+00
  0.000000000000e+00 0.000000000000e+00 0.000000000000e+00
  0.000000000000e+00 0.000000000000e+00 0.000000000000e+00
  0.000000000000e+00 0.000000000000e+00 0.000000000000e+00
  0.000000000000e+00 0.000000000000e+00 0.000000000000e+00
  0.000000000000e+00 0.000000000000e+00 0.000000000000e+00
  0.000000000000e+00 0.000000000000e+00 0.000000000000e+00
  0.000000000000e+00 0.000000000000e+00 0.000000000000e+00
  0.000000000000e+00 0.000000000000e+00 0.000000000000e+00
  0.000000000000e+00 0.000000000000e+00 0.000000000000e+00
  0.000000000000e+00 0.000000000000e+00 0.000000000000e+00
  0.000000000000e+00 0.000000000000e+00 0.000000000000e+00
  0.000000000000e+00 0.000000000000e+00 0.000000000000e+00
  0.000000000000e+00 0.000000000000e+00 0.000000000000e+00
  0.000000000000e+00 0.000000000000e+00 0.000000000000e+00
  0.000000000000e+00 0.000000000000e+00 0.000000000000e+00
  0.000000000000e+00 0.000000000000e+00 0.000000000000e+00
  0.000000000000e+00 0.000000000000e+00 0.000000000000e+00
  0.000000000000e+00 0.000000000000e+00 0.000000000000e+00
  0.000000000000e+00 0.000000000000e+00 0.000000000000e+00
  0.000000000000e+00 0.000000000000e+00 0.000000000000e+00
  0.000000000000e+00 0.000000000000e+00 0.000000000000e+00
  0.000000000000e+00 0.000000000000e+00 0.000000000000e+00
  0.000000000000e+00 0.000000000000e+00 0.000000000000e+00
  0.000000000000e+00 0.000000000000e+00 0.000000000000e+00
  0.000000000000e+00 0.000000000000e+00 0.000000000000e+00
  0.000000000000e+00 0.000000000000e+00 0.000000000000e+00
  0.000000000000e+00 0.000000000000e+00 0.000000000000e+00
  0.000000000000e+00 0.000000000000e+00 0.000000000000e+00
  0.000000000000e+00 0.000000000000e+00 0.000000000000e+00
  0.000000000000e+00 0.000000000000e+00 0.000000000000e+00
  0.000000000000e+00 0.000000000000e+00 0.000000000000e+00
  0.000000000000e+00 0.000000000000e+00 0.000000000000e+00
  0.000000000000e+00 0.000000000000e+00 0.000000000000e+00
  0.000000000000e+00 0.000000000000e+00 0.000000000000e+00
  0.000000000000e+00 0.000000000000e+00 0.000000000000e+00
  0.000000000000e+00 0.000000000000e+00 0.000000000000e+00
  0.000000000000e+00 0.000000000000e+00 0.000000000000e+00
  0.000000000000e+00 0.000000000000e+00 0.000000000000e+00
  0.000000000000e+00 0.000000000000e+00 0.000000000000e+00
  0.000000000000e+00 0.000000000000e+00 0.000000000000e+00
  0.000000000000e+00 0.000000000000e+00 0.000000000000e+00
  0.000000000000e+00 0.000000000000e+00 0.000000000000e+00
  0.000000000000e+00 0.000000000000e+00 0.000000000000e+00
  0.000000000000e+00 0.000000000000e+00 0.000000000000e+00
  0.000000000000e+00 0.000000000000e+00 0.000000000000e+00
  0.000000000000e+00 0.000000000000e+00 0.000000000000e+00
  0.000000000000e+00 0.000000000000e+00 0.000000000000e+00
  0.000000000000e+00 0.000000000000e+00 0.000000000000e+00
  0.000000000000e+00 0.000000000000e+00 0.000000000000e+00
  0.000000000000e+00 0.000000000000e+00 0.000000000000e+00
  0.000000000000e+00 0.000000000000e+00 0.000000000000e+00
  0.000000000000e+00 0.000000000000e+00 0.000000000000e+00
  0.000000000000e+00 0.000000000000e+00 0.000000000000e+00
  0.000000000000e+00 0.000000000000e+00 0.000000000000e+00
  0.000000000000e+00 0.000000000000e+00 0.000000000000e+00
  0.000000000000e+00 0.000000000000e+00 0.000000000000e+00
  0.000000000000e+00 0.000000000000e+00 0.000000000000e+00
  0.000000000000e+00 0.000000000000e+00 0.000000000000e+00
  0.000000000000e+00 0.000000000000e+00 0.000000000000e+00
  0.000000000000e+00 0.000000000000e+00 0.000000000000e+00
  0.000000000000e+00 0.000000000000e+00 0.000000000000e+00
  0.000000000000e+00 0.000000000000e+00 0.000000000000e+00
  0.000000000000e+00 0.000000000000e+00 0.000000000000e+00
  0.000000000000e+00 0.000000000000e+00 0.000000000000e+00
  0.000000000000e+00 0.000000000000e+00 0.000000000000e+00
  0.000000000000e+00 0.000000000000e+00 0.000000000000e+00
  0.000000000000e+00 0.000000000000e+00 0.000000000000e+00
  0.000000000000e+00 0.000000000000e+00 0.000000000000e+00
  0.000000000000e+00 0.000000000000e+00 0.000000000000e+00
  0.000000000000e+00 0.000000000000e+00 0.000000000000e+00
  0.000000000000e+00 0.000000000000e+00 0.000000000000e+00
  0.000000000000e+00 0.000000000000e+00 0.000000000000e+00
  0.000000000000e+00 0.000000000000e+00 0.000000000000e+00
  0.000000000000e+00 0.000000000000e+00 0.000000000000e+00
  0.000000000000e+00 0.000000000000e+00 0.000000000000e+00
  0.000000000000e+00 0.000000000000e+00 0.000000000000e+00
  0.000000000000e+00 0.000000000000e+00 0.000000000000e+00
  0.000000000000e+00 0.000000000000e+00 0.000000000000e+00
  0.000000000000e+00 0.000000000000e+00 0.000000000000e+00
  0.000000000000e+00 0.000000000000e+00 0.000000000000e+00
  0.000000000000e+00 0.000000000000e+00 0.000000000000e+00
  0.000000000000e+00 0.000000000000e+00 0.000000000000e+00
  0.000000000000e+00 0.000000000000e+00 0.000000000000e+00
  0.000000000000e+00 0.000000000000e+00 0.000000000000e+00
  0.000000000000e+00 0.000000000000e+00 0.000000000000e+00
  0.000000000000e+00 0.000000000000e+00 0.000000000000e+00
  0.000000000000e+00 0.000000000000e+00 0.000000000000e+00
  0.000000000000e+00 0.000000000000e+00 0.000000000000e+00
  0.000000000000e+00 0.000000000000e+00 0.000000000000e+00
  0.000000000000e+00 0.000000000000e+00 0.000000000000e+00
  0.000000000000e+00 0.000000000000e+00 0.000000000000e+00
  0.000000000000e+00 0.000000000000e+00 0.000000000000e+00
  0.000000000000e+00 0.000000000000e+00 0.000000000000e+00
  -4.746390032222e-03 4.746390032222e-03 0.000000000000e+00
  -4.768257998772e-03 1.434613616599e-02 0.000000000000e+00
  -4.812894016961e-03 2.427570911963e-02 0.000000000000e+00
  -4.881942756359e-03 3.478397948856e-02 0.000000000000e+00
  -4.977384876985e-03 4.615989859147e-02 0.000000000000e+00
  -5.100661706102e-03 5.873946595121e-02 0.000000000000e+00
  -5.250988406850e-03 7.289782945467e-02 0.000000000000e+00
  -5.422478333344e-03 8.901244627868e-02 0.000000000000e+00
  -5.599942442946e-03 1.073778232351e-01 0.000000000000e+00
  -5.753754673039e-03 1.280553742300e-01 0.000000000000e+00
  -5.834830619343e-03 1.506561571079e-01 0.000000000000e+00
  -5.771552490069e-03 1.740751304909e-01 0.000000000000e+00
  -5.471523672085e-03 1.962237694955e-01 0.000000000000e+00
  -4.831837281384e-03 2.138545647804e-01 0.000000000000e+00
  -3.760452801564e-03 2.226307076345e-01 0.000000000000e+00
  -2.206842754787e-03 2.176125787252e-01 0.000000000000e+00
  -1.934699980668e-04 1.942316787619e-01 0.000000000000e+00
  2.164795212305e-03 1.495926937033e-01 0.000000000000e+00
  4.664175837564e-03 8.370505951463e-02 0.000000000000e+00
  7.040626970244e-03 1.763452523028e-04 0.000000000000e+00
  9.015430963202e-03 -9.392080541297e-02 0.000000000000e+00
  1.034328377199e-02 -1.889806108071e-01 0.000000000000e+00
  1.084865535896e-02 -2.743238066453e-01 0.000000000000e+00
  1.044134009846e-02 -3.398583946927e-01 0.000000000000e+00
  9.109454304445e-03 -3.776836231999e-01 0.000000000000e+00
  6.896149572306e-03 -3.834299399453e-01 0.000000000000e+00
  3.873332211277e-03 -3.571069738747e-01 0.000000000000e+00
  1.280057335117e-04 -3.032232563558e-01 0.000000000000e+00
  -4.229472079720e-03 -2.300525774551e-01 0.000000000000e+00
  -9.040036001991e-03 -1.481494603772e-01 0.000000000000e+00
  -1.407204533182e-02 -6.844182225057e-02 0.000000000000e+00
  -1.902039061628e-02 -3.348272927406e-04 0.000000000000e+00
  -2.353837893430e-02 4.977333656654e-02 0.000000000000e+00
  -2.729345195158e-02 7.927750309197e-02 0.000000000000e+00
  -3.002520689509e-02 8.931603602964e-02 0.000000000000e+00
  -3.158562493968e-02 8.393193434996e-02 0.000000000000e+00
  -3.195327394377e-02 6.870115169858e-02 0.000000000000e+00
  -3.122504987037e-02 4.924930087045e-02 0.000000000000e+00
  -2.959336628795e-02 3.009237322391e-02 0.000000000000e+00
  -2.731466789419e-02 1.406781062482e-02 0.000000000000e+00
  -2.467268426138e-02 2.358923165667e-03 0.000000000000e+00
  -2.194056046044e-02 -5.092093367285e-03 0.000000000000e+00
  -1.934825779949e-02 -9.047025795206e-03 0.000000000000e+00
  -1.706176196794e-02 -1.050633061250e-02 0.000000000000e+00
  -1.517745699807e-02 -1.040012112245e-02 0.000000000000e+00
  -1.373049414079e-02 -9.435304551680e-03 0.000000000000e+00
  -1.271266984573e-02 -8.058991440464e-03 0.000000000000e+00
  -1.209415542590e-02 -6.489684035383e-03 0.000000000000e+00
  -1.184381644172e-02 -4.775042319347e-03 0.000000000000e+00
  -1.194401457573e-02 -2.850329406849e-03 0.000000000000e+00
  -1.239727588165e-02 -5.887847245106e-04 0.000000000000e+00
  -1.322381892108e-02 2.151906739709e-03 0.000000000000e+00
  -1.445049663267e-02 5.476882952115e-03 0.000000000000e+00
  -1.609317110597e-02 9.385532260693e-03 0.000000000000e+00
  -1.813591151136e-02 1.368479939283e-02 0.000000000000e+00
  -2.051152549258e-02 1.789640846657e-02 0.000000000000e+00
  -2.308852048669e-02 2.118852327639e-02 0.000000000000e+00
  -2.566939389712e-02 2.237937802327e-02 0.000000000000e+00
  -2.800382791420e-02 2.007029422372e-02 0.000000000000e+00
  -2.981737778602e-02 1.295912212801e-02 0.000000000000e+00
  -3.085158239639e-02 3.443801437448e-04 0.000000000000e+00
  -3.090676530263e-02 -1.725982833027e-02 0.000000000000e+00
  -2.987711314200e-02 -3.759693899301e-02 0.000000000000e+00
  -2.777049305137e-02 -5.650328072154e-02 0.000000000000e+00
  -2.471068538002e-02 -6.833007060131e-02 0.000000000000e+00
  -2.092287873384e-02 -6.698864015158e-02 0.000000000000e+00
  -1.670286342631e-02 -4.741697940546e-02 0.000000000000e+00
  -1.237029296511e-02 -7.099893987612e-03 0.000000000000e+00
  -8.211869229318e-03 5.275937510301e-02 0.000000000000e+00
  -4.430391862979e-03 1.267542059746e-01 0.000000000000e+00
  -1.121337935140e-03 2.057025365401e-01 0.000000000000e+00
  1.709245479149e-03 2.780472254046e-01 0.000000000000e+00
  4.092353088011e-03 3.320322389933e-01 0.000000000000e+00
  6.036311668202e-03 3.581553746214e-01 0.000000000000e+00
  7.491944569480e-03 3.512082919954e-01 0.000000000000e+00
  8.360208832852e-03 3.113015320598e-01 0.000000000000e+00
  8.535882532477e-03 2.436369351172e-01 0.000000000000e+00
  7.963300637396e-03 1.572308858619e-01 0.000000000000e+00
  6.677982211462e-03 6.305992003976e-02 0.000000000000e+00
  4.818421435885e-03 -2.789518113913e-02 0.000000000000e+00
  2.606136567063e-03 -1.063717099778e-01 0.000000000000e+00
  3.023721418354e-04 -1.660910260949e-01 0.000000000000e+00
  -1.844709680605e-03 -2.043828555372e-01 0.000000000000e+00
  -3.646828209239e-03 -2.220448105704e-01 0.000000000000e+00
  -5.003063551341e-03 -2.224930038355e-01 0.000000000000e+00
  -5.901598544438e-03 -2.104992031794e-01 0.000000000000e+00
  -6.399127595282e-03 -1.909441403298e-01 0.000000000000e+00
  -6.589204252322e-03 -1.679386408816e-01 0.000000000000e+00
  -6.572349105000e-03 -1.444351144759e-01 0.000000000000e+00
  -6.436042391441e-03 -1.222355815361e-01 0.000000000000e+00
  -6.245993678156e-03 -1.022137364643e-01 0.000000000000e+00
  -6.045657271608e-03 -8.459816587327e-02 0.000000000000e+00
  -5.860055484549e-03 -6.923212347375e-02 0.000000000000e+00
  -5.701031446625e-03 -5.577472454522e-02 0.000000000000e+00
  -5.572273653242e-03 -4.383390601521e-02 0.000000000000e+00
  -5.473258827934e-03 -3.303775361612e-02 0.000000000000e+00
  -5.401848751256e-03 -2.306171569795e-02 0.000000000000e+00
  -5.355737720985e-03 -1.363082036269e-02 0.000000000000e+00
  -5.333152295574e-03 -4.510099251692e-03 0.000000000000e+00
  0.000000000000e+00 0.000000000000e+00 0.000000000000e+00
  0.000000000000e+00 0.000000000000e+00 0.000000000000e+00
  -1.434613616599e-02 4.768257998772e-03 0.000000000000e+00
  -1.441265367835e-02 1.441265367835e-02 0.000000000000e+00
  -1.454830559063e-02 2.438947953773e-02 0.000000000000e+00
  -1.475783568463e-02 3.494878790387e-02 0.000000000000e+00
  -1.504684003886e-02 4.637953665103e-02 0.000000000000e+00
  -1.541906647313e-02 5.901533115504e-02 0.000000000000e+00
  -1.587126577992e-02 7.322449025838e-02 0.000000000000e+00
  -1.638449630963e-02 8.937050593117e-02 0.000000000000e+00
  -1.691152094278e-02 1.077242523253e-01 0.000000000000e+00
  -1.736151976612e-02 1.283127561932e-01 0.000000000000e+00
  -1.758532194674e-02 1.507036532717e-01 0.000000000000e+00
  -1.736672818588e-02 1.737457624370e-01 0.000000000000e+00
  -1.642859159948e-02 1.953149721450e-01 0.000000000000e+00
  -1.446456232054e-02 2.121596464613e-01 0.000000000000e+00
  -1.120394776540e-02 2.199936269187e-01 0.000000000000e+00
  -6.503842262771e-03 2.139959438916e-01 0.000000000000e+00
  -4.431273695463e-04 1.897742259456e-01 0.000000000000e+00
  6.620120492244e-03 1.446286334475e-01 0.000000000000e+00
  1.406018881493e-02 7.872967082249e-02 0.000000000000e+00
  2.107110910608e-02 -4.235637479386e-03 0.000000000000e+00
  2.680592745817e-02 -9.721844502633e-02 0.000000000000e+00
  3.052502373372e-02 -1.907299202781e-01 0.000000000000e+00
  3.171061018904e-02 -2.742654552166e-01 0.000000000000e+00
  3.011873169644e-02 -3.379175523683e-01 0.000000000000e+00
  2.576106032300e-02 -3.739349083568e-01 0.000000000000e+00
  1.883252706680e-02 -3.780368168000e-01 0.000000000000e+00
  9.622825790437e-03 -3.502675783827e-01 0.000000000000e+00
  -1.540941255183e-03 -2.951535583245e-01 0.000000000000e+00
  -1.428909086695e-02 -2.210166480614e-01 0.000000000000e+00
  -2.814994714016e-02 -1.385139695754e-01 0.000000000000e+00
  -4.248521573611e-02 -5.871003512650e-02 0.000000000000e+00
  -5.648044872295e-02 8.876963854686e-03 0.000000000000e+00
  -6.922080461995e-02 5.781988963456e-02 0.000000000000e+00
  -7.983106879404e-02 8.559628721619e-02 0.000000000000e+00
  -8.762362679334e-02 9.352156484987e-02 0.000000000000e+00
  -9.220129061204e-02 8.586448739599e-02 0.000000000000e+00
  -9.349389245088e-02 6.842884950056e-02 0.000000000000e+00
  -9.173908256442e-02 4.703856911695e-02 0.000000000000e+00
  -8.742820900685e-02 2.636054785047e-02 0.000000000000e+00
  -8.123093174054e-02 9.323660357645e-03 0.000000000000e+00
  -7.390459854790e-02 -2.865243364982e-03 0.000000000000e+00
  -6.619684609549e-02 -1.030780305267e-02 0.000000000000e+00
  -5.875759661291e-02 -1.386286820545e-02 0.000000000000e+00
  -5.207874762631e-02 -1.465583296215e-02 0.000000000000e+00
  -4.647232393803e-02 -1.374134736396e-02 0.000000000000e+00
  -4.208581962972e-02 -1.192754540337e-02 0.000000000000e+00
  -3.894409653330e-02 -9.726297907315e-03 0.000000000000e+00
  -3.700338661886e-02 -7.381601835288e-03 0.000000000000e+00
  -3.620337164406e-02 -4.933478422653e-03 0.000000000000e+00
  -3.650597092252e-02 -2.289095852781e-03 0.000000000000e+00
  -3.791331095195e-02 7.105830734338e-04 0.000000000000e+00
  -4.046178695840e-02 4.227557980804e-03 0.000000000000e+00
  -4.419359278226e-02 8.359715216903e-03 0.000000000000e+00
  -4.911130217418e-02 1.306308381209e-02 0.000000000000e+00
  -5.512488532229e-02 1.806357133160e-02 0.000000000000e+00
  -6.200344596880e-02 2.277181108410e-02 0.000000000000e+00
  -6.934523900964e-02 2.623190862048e-02 0.000000000000e+00
  -7.657861720104e-02 2.715024421123e-02 0.000000000000e+00
  -8.300265565714e-02 2.405790044671e-02 0.000000000000e+00
  -8.786794113644e-02 1.565035120378e-02 0.000000000000e+00
  -9.048545913343e-02 1.304873633636e-03 0.000000000000e+00
  -9.033934499498e-02 -1.831125308390e-02 0.000000000000e+00
  -8.717563516717e-02 -4.073887625049e-02 0.000000000000e+00
  -8.104807062719e-02 -6.159552811019e-02 0.000000000000e+00
  -7.231682599105e-02 -7.502887553027e-02 0.000000000000e+00
  -6.160433772698e-02 -7.479013013914e-02 0.000000000000e+00
  -4.971018412270e-02 -5.572965833344e-02 0.000000000000e+00
  -3.748578526151e-02 -1.534418438412e-02 0.000000000000e+00
  -2.568446791741e-02 4.504392441850e-02 0.000000000000e+00
  -1.483032374432e-02 1.198340351191e-01 0.000000000000e+00
  -5.164731938037e-03 1.996480616612e-01 0.000000000000e+00
  3.293581095482e-03 2.728128038355e-01 0.000000000000e+00
  1.059736592976e-02 3.275797681191e-01 0.000000000000e+00
  1.670728055626e-02 3.545539722888e-01 0.000000000000e+00
  2.140631678479e-02 3.486550251982e-01 0.000000000000e+00
  2.433852944088e-02 3.100543219376e-01 0.000000000000e+00
  2.514882775150e-02 2.438981732292e-01 0.000000000000e+00
  2.365135511016e-02 1.590397022863e-01 0.000000000000e+00
  1.995016072050e-02 6.623761643089e-02 0.000000000000e+00
  1.446813511797e-02 -2.373129115214e-02 0.000000000000e+00
  7.881217229253e-03 -1.017363972073e-01 0.000000000000e+00
  9.846213729443e-04 -1.615259785839e-01 0.000000000000e+00
  -5.467147815423e-03 -2.003490520374e-01 0.000000000000e+00
  -1.090067631351e-02 -2.188429670435e-01 0.000000000000e+00
  -1.500562026425e-02 -2.202336680696e-01 0.000000000000e+00
  -1.773985626880e-02 -2.091257679477e-01 0.000000000000e+00
  -1.926814206735e-02 -1.902917607121e-01 0.000000000000e+00
  -1.986768107592e-02 -1.678014048337e-01 0.000000000000e+00
  -1.983858650215e-02 -1.446183002449e-01 0.000000000000e+00
  -1.944349734545e-02 -1.225837916373e-01 0.000000000000e+00
  -1.888075182861e-02 -1.026183205932e-01 0.000000000000e+00
  -1.828232980136e-02 -8.499234017819e-02 0.000000000000e+00
  -1.772490945331e-02 -6.958097130393e-02 0.000000000000e+00
  -1.724540281004e-02 -5.606440739624e-02 0.000000000000e+00
  -1.685594035042e-02 -4.406244341720e-02 0.000000000000e+00
  -1.655569985024e-02 -3.320847153961e-02 0.000000000000e+00
  -1.633875151697e-02 -2.317935618441e-02 0.000000000000e+00
  -1.619847247295e-02 -1.369956995052e-02 0.000000000000e+00
  -1.612970667913e-02 -4.532700883092e-03 0.000000000000e+00
  0.000000000000e+00 0.000000000000e+00 0.000000000000e+00
  0.000000000000e+00 0.000000000000e+00 0.000000000000e+00
  -2.427570911963e-02 4.812894016962e-03 0.000000000000e+00
  -2.438947953773e-02 1.454830559063e-02 0.000000000000e+00
  -2.462108037368e-02 2.462108037368e-02 0.000000000000e+00
  -2.497773486589e-02 3.528337165413e-02 0.000000000000e+00
  -2.546754020111e-02 4.682376259022e-02 0.000000000000e+00
  -2.609471898033e-02 5.957051042933e-02 0.000000000000e+00
  -2.685075383080e-02 7.387754514135e-02 0.000000000000e+00
  -2.769969288503e-02 9.007962063214e-02 0.000000000000e+00
  -2.855718998511e-02 1.083996593576e-01 0.000000000000e+00
  -2.926549378314e-02 1.287956517823e-01 0.000000000000e+00
  -2.956992807141e-02 1.507489941514e-01 0.000000000000e+00
  -2.910636674382e-02 1.730182664688e-01 0.000000000000e+00
  -2.741415575818e-02 1.934121205412e-01 0.000000000000e+00
  -2.399209143080e-02 2.086764044588e-01 0.000000000000e+00
  -1.840870462395e-02 2.146328675592e-01 0.000000000000e+00
  -1.045596027090e-02 2.067038533954e-01 0.000000000000e+00
  -3.037863199395e-04 1.808534275976e-01 0.000000000000e+00
  1.140787541799e-02 1.347745221957e-01 0.000000000000e+00
  2.359255771427e-02 6.895903145526e-02 0.000000000000e+00
  3.486798520605e-02 -1.275134589509e-02 0.000000000000e+00
  4.379574592371e-02 -1.033653156804e-01 0.000000000000e+00
  4.914006126594e-02 -1.936464612418e-01 0.000000000000e+00
  5.007359324336e-02 -2.734680326856e-01 0.000000000000e+00
  4.627844200510e-02 -3.333279451685e-01 0.000000000000e+00
  3.792245842629e-02 -3.658108606044e-01 0.000000000000e+00
  2.552980087093e-02 -3.668396737409e-01 0.000000000000e+00
  9.803992441663e-03 -3.365292117362e-01 0.000000000000e+00
  -8.516371084080e-03 -2.794077943995e-01 0.000000000000e+00
  -2.870658268956e-02 -2.038240507689e-01 0.000000000000e+00
  -5.000509707295e-02 -1.205471962109e-01 0.000000000000e+00
  -7.152506211024e-02 -4.082157485707e-02 0.000000000000e+00
  -9.221654404463e-02 2.567521850788e-02 0.000000000000e+00
  -1.109325883958e-01 7.247803523244e-02 0.000000000000e+00
  -1.265817541924e-01 9.719757159468e-02 0.000000000000e+00
  -1.382980388786e-01 1.014291231675e-01 0.000000000000e+00
  -1.455606504907e-01 8.979720452809e-02 0.000000000000e+00
  -1.482383687976e-01 6.846645254668e-02 0.000000000000e+00
  -1.465742888187e-01 4.358207625817e-02 0.000000000000e+00
  -1.411369901604e-01 2.006886857504e-02 0.000000000000e+00
  -1.327495533359e-01 1.030625663018e-03 0.000000000000e+00
  -1.223948895459e-01 -1.225320548306e-02 0.000000000000e+00
  -1.111006609827e-01 -1.992182172229e-02 0.000000000000e+00
  -9.982219015905e-02 -2.296656955146e-02 0.000000000000e+00
  -8.934972140872e-02 -2.270344900163e-02 0.000000000000e+00
  -8.025940158520e-02 -2.039047443425e-02 0.000000000000e+00
  -7.291178202767e-02 -1.701254176620e-02 0.000000000000e+00
  -6.748797022892e-02 -1.320683600500e-02 0.000000000000e+00
  -6.404664975569e-02 -9.283093723701e-03 0.000000000000e+00
  -6.258401057708e-02 -5.294640356033e-03 0.000000000000e+00
  -6.308091093457e-02 -1.128434055124e-03 0.000000000000e+00
  -6.552615445137e-02 3.402504922809e-03 0.000000000000e+00
  -6.991081237463e-02 8.468770023350e-03 0.000000000000e+00
  -7.619502909663e-02 1.413452554798e-02 0.000000000000e+00
  -8.425492382864e-02 2.026587731685e-02 0.000000000000e+00
  -9.382248193864e-02 2.644191871076e-02 0.000000000000e+00
  -1.044348816935e-01 3.188442368207e-02 0.000000000000e+00
  -1.154106353594e-01 3.543684229133e-02 0.000000000000e+00
  -1.258677587914e-01 3.563581174450e-02 0.000000000000e+00
  -1.347931120949e-01 3.092172429652e-02 0.000000000000e+00
  -1.411604186983e-01 2.001911911755e-02 0.000000000000e+00
  -1.440776533510e-01 2.470858113262e-03 0.000000000000e+00
  -1.429293118995e-01 -2.077169334906e-02 0.000000000000e+00
  -1.374768350744e-01 -4.689462278018e-02 0.000000000000e+00
  -1.278958443502e-01 -7.114833694279e-02 0.000000000000e+00
  -1.147510351528e-01 -8.735212059582e-02 0.000000000000e+00
  -9.892015389176e-02 -8.901025463938e-02 0.000000000000e+00
  -8.147250958373e-02 -7.085133176987e-02 0.000000000000e+00
  -6.350314233706e-02 -3.041627706947e-02 0.000000000000e+00
  -4.594346133436e-02 3.075501874946e-02 0.000000000000e+00
  -2.940805107663e-02 1.067333863534e-01 0.000000000000e+00
  -1.415716059393e-02 1.878322281359e-01 0.000000000000e+00
  -2.175377334120e-04 2.622307014658e-01 0.000000000000e+00
  1.238233758322e-02 3.182582103375e-01 0.000000000000e+00
  2.338571011360e-02 3.467622429134e-01 0.000000000000e+00
  3.222166093995e-02 3.429117675187e-01 0.000000000000e+00
  3.811737451168e-02 3.069696533892e-01 0.000000000000e+00
  4.035779112405e-02 2.439321268545e-01 0.000000000000e+00
  3.857044107429e-02 1.622905713521e-01 0.000000000000e+00
  3.291479801551e-02 7.234358481356e-02 0.000000000000e+00
  2.411210598215e-02 -1.555254189892e-02 0.000000000000e+00
  1.331867984844e-02 -9.253480243806e-02 0.000000000000e+00
  1.891798020351e-03 -1.524040956687e-01 0.000000000000e+00
  -8.881479356092e-03 -1.922458883878e-01 0.000000000000e+00
  -1.801843571264e-02 -2.123756458385e-01 0.000000000000e+00
  -2.497645869718e-02 -2.156380223393e-01 0.000000000000e+00
  -2.966209814033e-02 -2.063015382303e-01 0.000000000000e+00
  -3.233086415636e-02 -1.889189386149e-01 0.000000000000e+00
  -3.343195681106e-02 -1.674735952676e-01 0.000000000000e+00
  -3.345971420371e-02 -1.449474469921e-01 0.000000000000e+00
  -3.285183907070e-02 -1.232576091798e-01 0.000000000000e+00
  -3.194254763169e-02 -1.034165400066e-01 0.000000000000e+00
  -3.095705239516e-02 -8.577803802862e-02 0.000000000000e+00
  -3.002852476625e-02 -7.028122143046e-02 0.000000000000e+00
  -2.922317141126e-02 -5.664901726797e-02 0.000000000000e+00
  -2.856486344997e-02 -4.452560396638e-02 0.000000000000e+00
  -2.805482411928e-02 -3.355559082129e-02 0.000000000000e+00
  -2.768487178391e-02 -2.341913757137e-02 0.000000000000e+00
  -2.744501217479e-02 -1.383992721670e-02 0.000000000000e+00
  -2.732724021483e-02 -4.578881370698e-03 0.000000000000e+00
  0.000000000000e+00 0.000000000000e+00 0.000000000000e+00
  0.000000000000e+00 0.000000000000e+00 0.000000000000e+00
  -3.478397948856e-02 4.881942756359e-03 0.000000000000e+00
  -3.494878790387e-02 1.475783568463e-02 0.000000000000e+00
  -3.528337165413e-02 2.497773486589e-02 0.000000000000e+00
  -3.579623567164e-02 3.579623567164e-02 0.000000000000e+00
  -3.649586653871e-02 4.750033477501e-02 0.000000000000e+00
  -3.738357377808e-02 6.040882426314e-02 0.000000000000e+00
  -3.844052601314e-02 7.485221839307e-02 0.000000000000e+00
  -3.960685631755e-02 9.112021673906e-02 0.000000000000e+00
  -4.075259549280e-02 1.093622995260e-01 0.000000000000e+00
  -4.164391620240e-02 1.294326361215e-01 0.000000000000e+00
  -4.191285564415e-02 1.506853835422e-01 0.000000000000e+00
  -4.104418467138e-02 1.717496447776e-01 0.000000000000e+00
  -3.839948095971e-02 1.903438275350e-01 0.000000000000e+00
  -3.330163232728e-02 2.032247845051e-01 0.000000000000e+00
  -2.519286466202e-02 2.063923330407e-01 0.000000000000e+00
  -1.384856753191e-02 1.956473464308e-01 0.000000000000e+00
  4.131215139159e-04 1.674960715655e-01 0.000000000000e+00
  1.661254031108e-02 1.202207976928e-01 0.000000000000e+00
  3.315216962399e-02 5.478844434907e-02 0.000000000000e+00
  4.803850260491e-02 -2.474251926160e-02 0.000000000000e+00
  5.923063588540e-02 -1.114940363120e-01 0.000000000000e+00