# vtk DataFile Version 3.0
Karman Output
ASCII
DATASET RECTILINEAR_GRID
DIMENSIONS 101 101 1
X_COORDINATES 101 float
   0.000000000000e+00   9.900990099010e-03   1.980198019802e-02   2.970297029703e-02   3.960396039604e-02   4.950495049505e-02   5.940594059406e-02   6.930693069307e-02   7.920792079208e-02   8.910891089109e-02   9.900990099010e-02   1.089108910891e-01   1.188118811881e-01   1.287128712871e-01   1.386138613861e-01   1.485148514851e-01   1.584158415842e-01   1.683168316832e-01   1.782178217822e-01   1.881188118812e-01   1.980198019802e-01   2.079207920792e-01   2.178217821782e-01   2.277227722772e-01   2.376237623762e-01   2.475247524752e-01   2.574257425743e-01   2.673267326733e-01   2.772277227723e-01   2.871287128713e-01   2.970297029703e-01   3.069306930693e-01   3.168316831683e-01   3.267326732673e-01   3.366336633663e-01   3.465346534653e-01   3.564356435644e-01   3.663366336634e-01   3.762376237624e-01   3.861386138614e-01   3.960396039604e-01   4.059405940594e-01   4.158415841584e-01   4.257425742574e-01   4.356435643564e-01   4.455445544554e-01   4.554455445545e-01   4.653465346535e-01   4.752475247525e-01   4.851485148515e-01   4.950495049505e-01   5.049504950495e-01   5.148514851485e-01   5.247524752475e-01   5.346534653465e-01   5.445544554455e-01   5.544554455446e-01   5.643564356436e-01   5.742574257426e-01   5.841584158416e-01   5.940594059406e-01   6.039603960396e-01   6.138613861386e-01   6.237623762376e-01   6.336633663366e-01   6.435643564356e-01   6.534653465347e-01   6.633663366337e-01   6.732673267327e-01   6.831683168317e-01   6.930693069307e-01   7.029702970297e-01   7.128712871287e-01   7.227722772277e-01   7.326732673267e-01   7.425742574257e-01   7.524752475248e-01   7.623762376238e-01   7.722772277228e-01   7.821782178218e-01   7.920792079208e-01   8.019801980198e-01   8.118811881188e-01   8.217821782178e-01   8.316831683168e-01   8.415841584158e-01   8.514851485149e-01   8.613861386139e-01   8.712871287129e-01   8.811881188119e-01   8.910891089109e-01   9.009900990099e-01   9.108910891089e-01   9.207920792079e-01   9.306930693069e-01   9.405940594059e-01   9.504950495050e-01   9.603960396040e-01   9.702970297030e-01   9.801980198020e-01   9.900990099010e-01
Y_COORDINATES 101 float
   0.000000000000e+00   9.900990099010e-03   1.980198019802e-02   2.970297029703e-02   3.960396039604e-02   4.950495049505e-02   5.940594059406e-02   6.930693069307e-02   7.920792079208e-02   8.910891089109e-02   9.900990099010e-02   1.089108910891e-01   1.188118811881e-01   1.287128712871e-01   1.386138613861e-01   1.485148514851e-01   1.584158415842e-01   1.683168316832e-01   1.782178217822e-01   1.881188118812e-01   1.980198019802e-01   2.079207920792e-01   2.178217821782e-01   2.277227722772e-01   2.376237623762e-01   2.475247524752e-01   2.574257425743e-01   2.673267326733e-01   2.772277227723e-01   2.871287128713e-01   2.970297029703e-01   3.069306930693e-01   3.168316831683e-01   3.267326732673e-01   3.366336633663e-01   3.465346534653e-01   3.564356435644e-01   3.663366336634e-01   3.762376237624e-01   3.861386138614e-01   3.960396039604e-01   4.059405940594e-01   4.158415841584e-01   4.257425742574e-01   4.356435643564e-01   4.455445544554e-01   4.554455445545e-01   4.653465346535e-01   4.752475247525e-01   4.851485148515e-01   4.950495049505e-01   5.049504950495e-01   5.148514851485e-01   5.247524752475e-01   5.346534653465e-01   5.445544554455e-01   5.544554455446e-01   5.643564356436e-01   5.742574257426e-01   5.841584158416e-01   5.940594059406e-01   6.039603960396e-01   6.138613861386e-01   6.237623762376e-01   6.336633663366e-01   6.435643564356e-01   6.534653465347e-01   6.633663366337e-01   6.732673267327e-01   6.831683168317e-01   6.930693069307e-01   7.029702970297e-01   7.128712871287e-01   7.227722772277e-01   7.326732673267e-01   7.425742574257e-01   7.524752475248e-01   7.623762376238e-01   7.722772277228e-01   7.821782178218e-01   7.920792079208e-01   8.019801980198e-01   8.118811881188e-01   8.217821782178e-01   8.316831683168e-01   8.415841584158e-01   8.514851485149e-01   8.613861386139e-01   8.712871287129e-01   8.811881188119e-01   8.910891089109e-01   9.009900990099e-01   9.108910891089e-01   9.207920792079e-01   9.306930693069e-01   9.405940594059e-01   9.504950495050e-01   9.603960396040e-01   9.702970297030e-01   9.801980198020e-01   9.900990099010e-01
Z_COORDINATES 1 float
  0.000000000000e+00
POINT_DATA 10201
VECTORS E_field float
  0.000000000000e+00 0.000000000000e+00 0.000000000000e+00
  0.000000000000e+00 0.000000000000e+00 0.000000000000e+00
  0.000000000000e+00 0.000000000000e+00 0.000000000000e+00
  0.000000000000e+00 0.000000000000e+00 0.000000000000e+00
  0.000000000000e+00 0.000000000000e+00 0.000000000000e+00
  0.000000000000e+00 0.000000000000e+00 0.000000000000e+00
  0.000000000000e+00 0.000000000000e+00 0.000000000000e+00
  0.000000000000e+00 0.000000000000e+00 0.000000000000e+00
  0.000000000000e+00 0.000000000000e+00 0.000000000000e+00
  0.000000000000e+00 0.000000000000e+00 0.000000000000e+00
  0.000000000000e+00 0.000000000000e+00 0.000000000000e+00
  0.000000000000e+00 0.000000000000e+00 0.000000000000e+00
  0.000000000000e+00 0.000000000000e+00 0.000000000000e+00
  0.000000000000e+00 0.000000000000e+00 0.000000000000e+00
  0.000000000000e+00 0.000000000000e+00 0.000000000000e+00
  0.000000000000e+00 0.000000000000e+00 0.000000000000e+00
  0.000000000000e+00 0.000000000000e+00 0.000000000000e+00
  0.000000000000e+00 0.000000000000e+00 0.000000000000e+00
  0.000000000000e+00 0.000000000000e+00 0.000000000000e+00
  0.000000000000e+00 0.000000000000e+00 0.000000000000e+00
  0.000000000000e+00 0.000000000000e+00 0.000000000000e+00
  0.000000000000e+00 0.000000000000e+00 0.000000000000e+00
  0.000000000000e+00 0.000000000000e+00 0.000000000000e+00
  0.000000000000e+00 0.000000000000e+00 0.000000000000e+00
  0.000000000000e+00 0.000000000000e+00 0.000000000000e+00
  0.000000000000e+00 0.000000000000e+00 0.000000000000e+00
  0.000000000000e+00 0.000000000000e+00 0.000000000000e+00
  0.000000000000e+00 0.000000000000e+00 0.000000000000e+00
  0.000000000000e+00 0.000000000000e+00 0.000000000000e+00
  0.000000000000e+00 0.000000000000e+00 0.000000000000e+00
  0.000000000000e+00 0.000000000000e+00 0.000000000000e+00
  0.000000000000e+00 0.000000000000e+00 0.000000000000e+00
  0.000000000000e+00 0.000000000000e+00 0.000000000000e+00
  0.000000000000e+00 0.000000000000e+00 0.000000000000e+00
  0.000000000000e+00 0.000000000000e+00 0.000000000000e+00
  0.000000000000e+00 0.000000000000e+00 0.000000000000e+00
  0.000000000000e+00 0.000000000000e+00 0.000000000000e+00
  0.000000000000e+00 0.000000000000e+00 0.000000000000e+00
  0.000000000000e+00 0.000000000000e+00 0.000000000000e+00
  0.000000000000e+00 0.000000000000e+00 0.000000000000e+00
  0.000000000000e+00 0.000000000000e+00 0.000000000000e+00
  0.000000000000e+00 0.000000000000e+00 0.000000000000e+00
  0.000000000000e+00 0.000000000000e+00 0.000000000000e+00
  0.000000000000e+00 0.000000000000e+00 0.000000000000e+00
  0.000000000000e+00 0.000000000000e+00 0.000000000000e+00
  0.000000000000e+00 0.000000000000e+00 0.000000000000e+00
  0.000000000000e+00 0.000000000000e+00 0.000000000000e+00
  0.000000000000e+00 0.000000000000e+00 0.000000000000e+00
  0.000000000000e+00 0.000000000000e+00 0.000000000000e+00
  0.000000000000e+00 0.000000000000e+00 0.000000000000e+00
  0.000000000000e+00 0.000000000000e+00 0.000000000000e+00
  0.000000000000e+00 0.000000000000e+00 0.000000000000e+00
  0.000000000000e+00 0.000000000000e+00 0.000000000000e+00
  0.000000000000e+00 0.000000000000e+00 0.000000000000e+00
  0.000000000000e+00 0.000000000000e+00 0.000000000000e+00
  0.000000000000e+00 0.000000000000e+00 0.000000000000e+00
  0.000000000000e+00 0.000000000000e+00 0.000000000000e+00
  0.000000000000e+00 0.000000000000e+00 0.000000000000e+00
  0.000000000000e+00 0.000000000000e+00 0.000000000000e+00
  0.000000000000e+00 0.000000000000e+00 0.000000000000e+00
  0.000000000000e+00 0.000000000000e+00 0.000000000000e+00
  0.000000000000e+00 0.000000000000e+00 0.000000000000e+00
  0.000000000000e+00 0.000000000000e+00 0.000000000000e+00
  0.000000000000e+00 0.000000000000e+00 0.000000000000e+00
  0.000000000000e+00 0.000000000000e+00 0.000000000000e+00
  0.000000000000e+00 0.000000000000e+00 0.000000000000e+00
  0.000000000000e+00 0.000000000000e+00 0.000000000000e+00
  0.000000000000e+00 0.000000000000e+00 0.000000000000e+00
  0.000000000000e+00 0.000000000000e+00 0.000000000000e+00
  0.000000000000e+00 0.000000000000e+00 0.000000000000e+00
  0.000000000000e+00 0.000000000000e+00 0.000000000000e+00
  0.000000000000e+00 0.000000000000e+00 0.000000000000e+00
  0.000000000000e+00 0.000000000000e+00 0.000000000000e+00
  0.000000000000e+00 0.000000000000e+00 0.000000000000e+00
  0.000000000000e+00 0.000000000000e+00 0.000000000000e+00
  0.000000000000e+00 0.000000000000e+00 0.000000000000e+00
  0.000000000000e+00 0.000000000000e+00 0.000000000000e+00
  0.000000000000e+00 0.000000000000e+00 0.000000000000e+00
  0.000000000000e+00 0.000000000000e+00 0.000000000000e+00
  0.000000000000e+00 0.000000000000e+00 0.000000000000e+00
  0.000000000000e+00 0.000000000000e+00 0.000000000000e+00
  0.000000000000e+00 0.000000000000e+00 0.000000000000e+00
  0.000000000000e+00 0.000000000000e+00 0.000000000000e+00
  0.000000000000e+00 0.000000000000e+00 0.000000000000e+00
  0.000000000000e+00 0.000000000000e+00 0.000000000000e+00
  0.000000000000e+00 0.000000000000e+00 0.000000000000e+00
  0.000000000000e+00 0.000000000000e+00 0.000000000000e+00
  0.000000000000e+00 0.000000000000e+00 0.000000000000e+00
  0.000000000000e+00 0.000000000000e+00 0.000000000000e+00
  0.000000000000e+00 0.000000000000e+00 0.000000000000e+00
  0.000000000000e+00 0.000000000000e+00 0.000000000000e+00
  0.000000000000e+00 0.000000000000e+00 0.000000000000e+00
  0.000000000000e+00 0.000000000000e+00 0.000000000000e+00
  0.000000000000e+00 0.000000000000e+00 0.000000000000e+00
  0.000000000000e+00 0.000000000000e+00 0.000000000000e+00
  0.000000000000e+00 0.000000000000e+00 0.000000000000e+00
  0.000000000000e+00 0.000000000000e+00 0.000000000000e+00
  0.000000000000e+00 0.000000000000e+00 0.000000000000e+00
  0.000000000000e+00 0.000000000000e+00 0.000000000000e+00
  0.000000000000e+00 0.000000000000e+00 0.000000000000e+00
  0.000000000000e+00 0.000000000000e+00 0.000000000000e+00
  0.000000000000e+00 0.000000000000e+00 0.000000000000e+00
  3.192801622107e-03 -3.192801622107e-03 0.000000000000e+00
  3.537351840110e-03 -1.041273267087e-02 0.000000000000e+00
  4.133409509825e-03 -2.006236804709e-02 0.000000000000e+00
  4.794897511367e-03 -3.352462811085e-02 0.000000000000e+00
  5.253429568698e-03 -5.183987042853e-02 0.000000000000e+00
  5.192634314018e-03 -7.556358135114e-02 0.000000000000e+00
  4.310066533263e-03 -1.045884948960e-01 0.000000000000e+00
  2.395621924607e-03 -1.379404693868e-01 0.000000000000e+00
  -5.971711184735e-04 -1.736133185630e-01 0.000000000000e+00
  -4.513383310457e-03 -2.085632041775e-01 0.000000000000e+00
  -9.009630730434e-03 -2.390090559926e-01 0.000000000000e+00
  -1.361727983024e-02 -2.611401314220e-01 0.000000000000e+00
  -1.783704288967e-02 -2.721745291916e-01 0.000000000000e+00
  -2.123527040054e-02 -2.714607356415e-01 0.000000000000e+00
  -2.351383381101e-02 -2.610990581451e-01 0.000000000000e+00
  -2.453803277337e-02 -2.455872757580e-01 0.000000000000e+00
  -2.432362185447e-02 -2.303853355862e-01 0.000000000000e+00
  -2.299695602814e-02 -2.199105640071e-01 0.000000000000e+00
  -2.074708296218e-02 -2.159301197692e-01 0.000000000000e+00
  -1.778603656985e-02 -2.172285140268e-01 0.000000000000e+00
  -1.432699320043e-02 -2.207483478880e-01 0.000000000000e+00
  -1.058212180600e-02 -2.235293424581e-01 0.000000000000e+00
  -6.773955472238e-03 -2.242908711762e-01 0.000000000000e+00
  -3.146996669060e-03 -2.237591196455e-01 0.000000000000e+00
  3.686089074854e-05 -2.236702012856e-01 0.000000000000e+00
  2.530422601991e-03 -2.252333826208e-01 0.000000000000e+00
  4.157726358267e-03 -2.281541829688e-01 0.000000000000e+00
  4.874209414946e-03 -2.308949729196e-01 0.000000000000e+00
  4.800125225235e-03 -2.319736066847e-01 0.000000000000e+00
  4.204510771728e-03 -2.313565650912e-01 0.000000000000e+00
  3.440021222865e-03 -2.309067711934e-01 0.000000000000e+00
  2.853536403674e-03 -2.334797430477e-01 0.000000000000e+00
  2.707540256171e-03 -2.411877111515e-01 0.000000000000e+00
  3.137076045829e-03 -2.539109095789e-01 0.000000000000e+00
  4.145457648338e-03 -2.689435855417e-01 0.000000000000e+00
  5.624633754907e-03 -2.819023797932e-01 0.000000000000e+00
  7.383098637557e-03 -2.882779384816e-01 0.000000000000e+00
  9.173245584313e-03 -2.847743730055e-01 0.000000000000e+00
  1.072080879146e-02 -2.699078867757e-01 0.000000000000e+00
  1.176259403377e-02 -2.438822426479e-01 0.000000000000e+00
  1.209334032071e-02 -2.081288448594e-01 0.000000000000e+00
  1.161303885182e-02 -1.649301036180e-01 0.000000000000e+00
  1.035912694061e-02 -1.173247240099e-01 0.000000000000e+00
  8.508511970302e-03 -6.920276839101e-02 0.000000000000e+00
  6.343381897202e-03 -2.528295358522e-02 0.000000000000e+00
  4.188960977702e-03 9.375473266715e-03 0.000000000000e+00
  2.344036529442e-03 3.047616711164e-02 0.000000000000e+00
  1.028831587386e-03 3.595462900882e-02 0.000000000000e+00
  3.661149433548e-04 2.716734130130e-02 0.000000000000e+00
  3.941326817296e-04 9.071485604319e-03 0.000000000000e+00
  1.094052329603e-03 -1.093756588229e-02 0.000000000000e+00
  2.410166301001e-03 -2.516303907449e-02 0.000000000000e+00
  4.250817955303e-03 -2.780205349820e-02 0.000000000000e+00
  6.474861671738e-03 -1.627724678019e-02 0.000000000000e+00
  8.880662332623e-03 8.689098255042e-03 0.000000000000e+00
  1.121427019140e-02 4.398105989717e-02 0.000000000000e+00
  1.320176778255e-02 8.532487040751e-02 0.000000000000e+00
  1.459647548547e-02 1.282831389548e-01 0.000000000000e+00
  1.522381440352e-02 1.687889401804e-01 0.000000000000e+00
  1.500882235355e-02 2.033392194114e-01 0.000000000000e+00
  1.398071652829e-02 2.291182531816e-01 0.000000000000e+00
  1.225915384432e-02 2.442752411798e-01 0.000000000000e+00
  1.003223651672e-02 2.483964957579e-01 0.000000000000e+00
  7.534419156089e-03 2.429685667069e-01 0.000000000000e+00
  5.025112172075e-03 2.314441145121e-01 0.000000000000e+00
  2.761472628598e-03 2.185645220644e-01 0.000000000000e+00
  9.582874068985e-04 2.089521919253e-01 0.000000000000e+00
  -2.629296348787e-04 2.055087447475e-01 0.000000000000e+00
  -9.190781269863e-04 2.084615971517e-01 0.000000000000e+00
  -1.179792326059e-03 2.156624712136e-01 0.000000000000e+00
  -1.333044036530e-03 2.240160305393e-01 0.000000000000e+00
  -1.706100163350e-03 2.311887352066e-01 0.000000000000e+00
  -2.569625436655e-03 2.365672965629e-01 0.000000000000e+00
  -4.062147260251e-03 2.409619264552e-01 0.000000000000e+00
  -6.161040487289e-03 2.454089676797e-01 0.000000000000e+00
  -8.703035265758e-03 2.500101755488e-01 0.000000000000e+00
  -1.143735652171e-02 2.536633229800e-01 0.000000000000e+00
  -1.408784502545e-02 2.548770625874e-01 0.000000000000e+00
  -1.640538815214e-02 2.530849365642e-01 0.000000000000e+00
  -1.820076907150e-02 2.494958940187e-01 0.000000000000e+00
  -1.935489862387e-02 2.467893668303e-01 0.000000000000e+00
  -1.980852349186e-02 2.477103260470e-01 0.000000000000e+00
  -1.953941610404e-02 2.533554469256e-01 0.000000000000e+00
  -1.854105691525e-02 2.621753272858e-01 0.000000000000e+00
  -1.681811315985e-02 2.702971417659e-01 0.000000000000e+00
  -1.440631218417e-02 2.729939709063e-01 0.000000000000e+00
  -1.140923502061e-02 2.665131673257e-01 0.000000000000e+00
  -8.030393551452e-03 2.493856430328e-01 0.000000000000e+00
  -4.575489096755e-03 2.227357039959e-01 0.000000000000e+00
  -1.411137936124e-03 1.896624646917e-01 0.000000000000e+00
  1.112494199642e-03 1.541294767591e-01 0.000000000000e+00
  2.748348865734e-03 1.198562836670e-01 0.000000000000e+00
  3.414936688571e-03 8.954731115640e-02 0.000000000000e+00
  3.210736998668e-03 6.457975398415e-02 0.000000000000e+00
  2.377270783003e-03 4.510304156298e-02 0.000000000000e+00
  1.228446070802e-03 3.040161095918e-02 0.000000000000e+00
  7.476520544725e-05 1.933595366776e-02 0.000000000000e+00
  -8.324368323474e-04 1.070211639721e-02 0.000000000000e+00
  -1.326336951950e-03 3.423780741658e-03 0.000000000000e+00
  0.000000000000e+00 0.000000000000e+00 0.000000000000e+00
  0.000000000000e+00 0.000000000000e+00 0.000000000000e+00
  1.041273267087e-02 -3.537351840110e-03 0.000000000000e+00
  1.135799620573e-02 -1.135799620573e-02 0.000000000000e+00
  1.298501513983e-02 -2.134018111603e-02 0.000000000000e+00
  1.476741775683e-02 -3.469070566044e-02 0.000000000000e+00
  1.594727113322e-02 -5.231217831267e-02 0.000000000000e+00
  1.563304361633e-02 -7.471625069543e-02 0.000000000000e+00
  1.297507073130e-02 -1.018952848860e-01 0.000000000000e+00
  7.386886388951e-03 -1.331310504459e-01 0.000000000000e+00
  -1.254387950527e-03 -1.667886701214e-01 0.000000000000e+00
  -1.250283447992e-02 -2.002231938978e-01 0.000000000000e+00
  -2.538160024131e-02 -2.299740530910e-01 0.000000000000e+00
  -3.856193891737e-02 -2.523871465477e-01 0.000000000000e+00
  -5.063010857097e-02 -2.646395813529e-01 0.000000000000e+00
  -6.035892660420e-02 -2.658686379362e-01 0.000000000000e+00
  -6.690544388488e-02 -2.578660751593e-01 0.000000000000e+00
  -6.989095350381e-02 -2.448105501626e-01 0.000000000000e+00
  -6.936553228149e-02 -2.319018933229e-01 0.000000000000e+00
  -6.569521369210e-02 -2.233909906861e-01 0.000000000000e+00
  -5.942413981283e-02 -2.209706400354e-01 0.000000000000e+00
  -5.115824905920e-02 -2.234149309065e-01 0.000000000000e+00
  -4.149974023482e-02 -2.276794832021e-01 0.000000000000e+00
  -3.103959898823e-02 -2.308032197851e-01 0.000000000000e+00
  -2.039171961796e-02 -2.314730395533e-01 0.000000000000e+00
  -1.023032098066e-02 -2.303653087089e-01 0.000000000000e+00
  -1.282221471827e-03 -2.291959692908e-01 0.000000000000e+00
  5.760253434462e-03 -2.292436512331e-01 0.000000000000e+00
  1.039830470045e-02 -2.304092693788e-01 0.000000000000e+00
  1.249853731165e-02 -2.314566021775e-01 0.000000000000e+00
  1.239025879004e-02 -2.312296147154e-01 0.000000000000e+00
  1.082221264433e-02 -2.299368964612e-01 0.000000000000e+00
  8.778734286197e-03 -2.295184719163e-01 0.000000000000e+00
  7.226403721823e-03 -2.327292269411e-01 0.000000000000e+00
  6.891983661786e-03 -2.414578110502e-01 0.000000000000e+00
  8.143391362779e-03 -2.553217531700e-01 0.000000000000e+00
  1.098262355154e-02 -2.713803557403e-01 0.000000000000e+00
  1.510849462881e-02 -2.850706567756e-01 0.000000000000e+00
  1.999740870739e-02 -2.917570404555e-01 0.000000000000e+00
  2.497678939442e-02 -2.880647986571e-01 0.000000000000e+00
  2.929900438613e-02 -2.724872393100e-01 0.000000000000e+00
  3.223686575565e-02 -2.452825367061e-01 0.000000000000e+00
  3.320829229907e-02 -2.080307236040e-01 0.000000000000e+00
  3.190976907240e-02 -1.632494001405e-01 0.000000000000e+00
  2.841531735566e-02 -1.142570638115e-01 0.000000000000e+00
  2.319523240079e-02 -6.519972860596e-02 0.000000000000e+00
  1.703189103044e-02 -2.095752185984e-02 0.000000000000e+00
  1.085051175059e-02 1.338584181307e-02 0.000000000000e+00
  5.521422047317e-03 3.363981278975e-02 0.000000000000e+00
  1.704521236864e-03 3.792308915073e-02 0.000000000000e+00
  -2.156149432856e-04 2.778173403933e-02 0.000000000000e+00
  -1.041948244808e-04 8.317655047398e-03 0.000000000000e+00
  1.993505684522e-03 -1.298135546559e-02 0.000000000000e+00
  5.905957538791e-03 -2.834781532370e-02 0.000000000000e+00
  1.133997525055e-02 -3.189194664462e-02 0.000000000000e+00
  1.784987128992e-02 -2.092129343862e-02 0.000000000000e+00
  2.481824072996e-02 3.958974749204e-03 0.000000000000e+00
  3.149249210066e-02 3.970332410209e-02 0.000000000000e+00
  3.708674256558e-02 8.202085807320e-02 0.000000000000e+00
  4.091843651651e-02 1.263607495654e-01 0.000000000000e+00
  4.252930068455e-02 1.684731264214e-01 0.000000000000e+00
  4.175032665697e-02 2.046489991956e-01 0.000000000000e+00
  3.870011971798e-02 2.318867861199e-01 0.000000000000e+00
  3.373550439557e-02 2.481928862163e-01 0.000000000000e+00
  2.738634236794e-02 2.530549300539e-01 0.000000000000e+00
  2.029760656468e-02 2.478966855593e-01 0.000000000000e+00
  1.317796727335e-02 2.361449419249e-01 0.000000000000e+00
  6.732424713760e-03 2.225728767483e-01 0.000000000000e+00
  1.555742485377e-03 2.119237046878e-01 0.000000000000e+00
  -2.008620241946e-03 2.073228117521e-01 0.000000000000e+00
  -3.996855649984e-03 2.092919140462e-01 0.000000000000e+00
  -4.868283499750e-03 2.159642963674e-01 0.000000000000e+00
  -5.412106823220e-03 2.244112804192e-01 0.000000000000e+00
  -6.528308141262e-03 2.322827427715e-01 0.000000000000e+00
  -8.961153939106e-03 2.387696600692e-01 0.000000000000e+00
  -1.309048890473e-02 2.443814197382e-01 0.000000000000e+00
  -1.885419519457e-02 2.498520739136e-01 0.000000000000e+00
  -2.580890315181e-02 2.550637720506e-01 0.000000000000e+00
  -3.327933821819e-02 2.588144828005e-01 0.000000000000e+00
  -4.052815355373e-02 2.596252066062e-01 0.000000000000e+00
  -4.689394326932e-02 2.570201253877e-01 0.000000000000e+00
  -5.187226419810e-02 2.523344070434e-01 0.000000000000e+00
  -5.513540160744e-02 2.483681207674e-01 0.000000000000e+00
  -5.650065579010e-02 2.479504511606e-01 0.000000000000e+00
  -5.587105049559e-02 2.522166091296e-01 0.000000000000e+00
  -5.318587934601e-02 2.596306347433e-01 0.000000000000e+00
  -4.841979092746e-02 2.663528021343e-01 0.000000000000e+00
  -4.164738804325e-02 2.677541066779e-01 0.000000000000e+00
  -3.314998259618e-02 2.602585489434e-01 0.000000000000e+00
  -2.350404406931e-02 2.426154814191e-01 0.000000000000e+00
  -1.358294708156e-02 2.161298641672e-01 0.000000000000e+00
  -4.435878389780e-03 1.839568846680e-01 0.000000000000e+00
  2.933640639346e-03 1.499419056180e-01 0.000000000000e+00
  7.813811377970e-03 1.175278294034e-01 0.000000000000e+00
  9.961230994940e-03 8.906175798017e-02 0.000000000000e+00
  9.641441338416e-03 6.558929650681e-02 0.000000000000e+00
  7.524553654504e-03 4.704385293991e-02 0.000000000000e+00
  4.485841254622e-03 3.264833669434e-02 0.000000000000e+00
  1.392086638981e-03 2.133666341360e-02 0.000000000000e+00
  -1.055302232812e-03 1.205599756097e-02 0.000000000000e+00
  -2.391228474542e-03 3.899725939238e-03 0.000000000000e+00
  0.000000000000e+00 0.000000000000e+00 0.000000000000e+00
  0.000000000000e+00 0.000000000000e+00 0.000000000000e+00
  2.006236804709e-02 -4.133409509825e-03 0.000000000000e+00
  2.134018111603e-02 -1.298501513983e-02 0.000000000000e+00
  2.350965600609e-02 -2.350965600609e-02 0.000000000000e+00
  2.580058823794e-02 -3.659456561924e-02 0.000000000000e+00
  2.710653192649e-02 -5.289411541881e-02 0.000000000000e+00
  2.613043297530e-02 -7.284398712120e-02 0.000000000000e+00
  2.164313606837e-02 -9.662227866823e-02 0.000000000000e+00
  1.280757225385e-02 -1.239803085068e-01 0.000000000000e+00
  -5.296480565009e-04 -1.539609174107e-01 0.000000000000e+00
  -1.768742861574e-02 -1.846447195198e-01 0.000000000000e+00
  -3.720882576518e-02 -2.131523645581e-01 0.000000000000e+00
  -5.712495217658e-02 -2.361123699931e-01 0.000000000000e+00
  -7.534608257322e-02 -2.506250578572e-01 0.000000000000e+00
  -9.005990994539e-02 -2.554405160264e-01 0.000000000000e+00
  -1.000239432913e-01 -2.517836464425e-01 0.000000000000e+00
  -1.046877660092e-01 -2.432436465425e-01 0.000000000000e+00
  -1.041450918531e-01 -2.345368923214e-01 0.000000000000e+00
  -9.896687570193e-02 -2.296045264282e-01 0.000000000000e+00
  -8.998995783003e-02 -2.300050960445e-01 0.000000000000e+00
  -7.813207112287e-02 -2.345042523583e-01 0.000000000000e+00
  -6.428265281400e-02 -2.400980888836e-01 0.000000000000e+00
  -4.928692216794e-02 -2.438404859962e-01 0.000000000000e+00
  -3.400197158065e-02 -2.443686032997e-01 0.000000000000e+00
  -1.936603678263e-02 -2.422670783978e-01 0.000000000000e+00
  -6.403286010755e-03 -2.392050498826e-01 0.000000000000e+00
  3.892999381269e-03 -2.365733309396e-01 0.000000000000e+00
  1.079162752125e-02 -2.346162690782e-01 0.000000000000e+00
  1.408114707365e-02 -2.326393546416e-01 0.000000000000e+00
  1.422059143536e-02 -2.300780280913e-01 0.000000000000e+00
  1.228083515265e-02 -2.275806806567e-01 0.000000000000e+00
  9.674107776496e-03 -2.272244819860e-01 0.000000000000e+00
  7.778671266251e-03 -2.315754497954e-01 0.000000000000e+00
  7.612818614603e-03 -2.421113154813e-01 0.000000000000e+00
  9.668701610746e-03 -2.579755394304e-01 0.000000000000e+00
  1.391858449709e-02 -2.758156845443e-01 0.000000000000e+00
  1.992417006273e-02 -2.907667845954e-01 0.000000000000e+00
  2.696204497937e-02 -2.979877015985e-01 0.000000000000e+00
  3.412027345923e-02 -2.939717466283e-01 0.000000000000e+00
  4.037887823833e-02 -2.771611110279e-01 0.000000000000e+00
  4.471630227035e-02 -2.478839502689e-01 0.000000000000e+00
  4.626910591574e-02 -2.079535400600e-01 0.000000000000e+00
  4.452767962867e-02 -1.602866339429e-01 0.000000000000e+00
  3.950648855159e-02 -1.087041869247e-01 0.000000000000e+00
  3.181148805101e-02 -5.783751968584e-02 0.000000000000e+00
  2.255393474957e-02 -1.289883570613e-02 0.000000000000e+00
  1.312101671088e-02 2.094145341061e-02 0.000000000000e+00
  4.879619648637e-03 3.965468839239e-02 0.000000000000e+00
  -1.078683371070e-03 4.168341777983e-02 0.000000000000e+00
  -4.069035132399e-03 2.893189368332e-02 0.000000000000e+00
  -3.809661675794e-03 6.796702056339e-03 0.000000000000e+00
  -3.432043540219e-04 -1.702456020450e-02 0.000000000000e+00
  6.032702341800e-03 -3.459296917266e-02 0.000000000000e+00
  1.477862810570e-02 -3.982673644355e-02 0.000000000000e+00
  2.509112463135e-02 -2.980889649280e-02 0.000000000000e+00
  3.591132673393e-02 -4.941994113405e-03 0.000000000000e+00
  4.602031763666e-02 3.182105026700e-02 0.000000000000e+00
  5.422144291157e-02 7.610775573062e-02 0.000000000000e+00
  5.955113558047e-02 1.231124648689e-01 0.000000000000e+00
  6.143876197880e-02 1.682229201750e-01 0.000000000000e+00
  5.976289083820e-02 2.073540502911e-01 0.000000000000e+00
  5.480453238033e-02 2.371903001650e-01 0.000000000000e+00
  4.714292627542e-02 2.555155934030e-01 0.000000000000e+00
  3.755164807033e-02 2.616726629580e-01 0.000000000000e+00
  2.692843434276e-02 2.569909020878e-01 0.000000000000e+00
  1.624784753842e-02 2.448509514274e-01 0.000000000000e+00
  6.490791814886e-03 2.300694654884e-01 0.000000000000e+00
  -1.493144956546e-03 2.175877349232e-01 0.000000000000e+00
  -7.187118239175e-03 2.109171175127e-01 0.000000000000e+00
  -1.060054786946e-02 2.110992733163e-01 0.000000000000e+00
  -1.234371191858e-02 2.167715289922e-01 0.000000000000e+00
  -1.350286249483e-02 2.253070216921e-01 0.000000000000e+00
  -1.532999346591e-02 2.343303337867e-01 0.000000000000e+00
  -1.886300962741e-02 2.426879310128e-01 0.000000000000e+00
  -2.463165037213e-02 2.503611245047e-01 0.000000000000e+00
  -3.255585701287e-02 2.575602820776e-01 0.000000000000e+00
  -4.204288739382e-02 2.637973022247e-01 0.000000000000e+00
  -5.220441007622e-02 2.677129103751e-01 0.000000000000e+00
  -6.208915740748e-02 2.678603416984e-01 0.000000000000e+00
  -7.085537932415e-02 2.639170019277e-01 0.000000000000e+00
  -7.785430381188e-02 2.574147759198e-01 0.000000000000e+00
  -8.263132696933e-02 2.513279124577e-01 0.000000000000e+00
  -8.487112928769e-02 2.485957159713e-01 0.000000000000e+00
  -8.432601934491e-02 2.503966290816e-01 0.000000000000e+00
  -8.077617961464e-02 2.552156039115e-01 0.000000000000e+00
  -7.406494444532e-02 2.592905093783e-01 0.000000000000e+00
  -6.422014372374e-02 2.581991958281e-01 0.000000000000e+00
  -5.161995833689e-02 2.487158689592e-01 0.000000000000e+00
  -3.711618340587e-02 2.300084479453e-01 0.000000000000e+00
  -2.202211831360e-02 2.037217355609e-01 0.000000000000e+00
  -7.920256105794e-03 1.731160823747e-01 0.000000000000e+00
  3.672428855642e-03 1.418205039207e-01 0.000000000000e+00
  1.166962659000e-02 1.127718626277e-01 0.000000000000e+00
  1.567513564325e-02 8.766479608566e-02 0.000000000000e+00
  1.604092255784e-02 6.694026114325e-02 0.000000000000e+00
  1.371262196506e-02 5.013807658015e-02 0.000000000000e+00
  9.936773076844e-03 3.636867434219e-02 0.000000000000e+00
  5.948814172579e-03 2.469803928565e-02 0.000000000000e+00
  2.745847901662e-03 1.434497683162e-02 0.000000000000e+00
  9.861810479879e-04 4.706339763983e-03 0.000000000000e+00
  0.000000000000e+00 0.000000000000e+00 0.000000000000e+00
  0.000000000000e+00 0.000000000000e+00 0.000000000000e+00
  3.352462811085e-02 -4.794897511367e-03 0.000000000000e+00
  3.469070566044e-02 -1.476741775683e-02 0.000000000000e+00
  3.659456561924e-02 -2.580058823794e-02 0.000000000000e+00
  3.838173693608e-02 -3.838173693608e-02 0.000000000000e+00
  3.882540623425e-02 -5.285655708867e-02 0.000000000000e+00
  3.649117130151e-02 -6.957121156741e-02 0.000000000000e+00
  3.002958070494e-02 -8.894616671853e-02 0.000000000000e+00
  1.854231481953e-02 -1.113335907565e-01 0.000000000000e+00
  1.910051273895e-03 -1.366381513049e-01 0.000000000000e+00
  -1.904016660918e-02 -1.638594871833e-01 0.000000000000e+00
  -4.260430401254e-02 -1.908520623419e-01 0.000000000000e+00
  -6.650152694973e-02 -2.145993228607e-01 0.000000000000e+00
  -8.831795944382e-02 -2.321005420988e-01 0.000000000000e+00
  -1.059615939165e-01 -2.416075699399e-01 0.000000000000e+00
  -1.180031568244e-01 -2.436109962752e-01 0.000000000000e+00
  -1.238279798359e-01 -2.409276509803e-01 0.000000000000e+00
  -1.235907745204e-01 -2.376327673551e-01 0.000000000000e+00
  -1.180219441736e-01 -2.372556978926e-01 0.000000000000e+00
  -1.081662667486e-01 -2.411865198770e-01 0.000000000000e+00
  -9.514086056147e-02 -2.482061214201e-01 0.000000000000e+00
  -7.998272330005e-02 -2.554037753920e-01 0.000000000000e+00
  -6.361939877589e-02 -2.598938546580e-01 0.000000000000e+00