# vtk DataFile Version 3.0
Karman Output
ASCII
DATASET RECTILINEAR_GRID
DIMENSIONS 101 101 1
X_COORDINATES 101 float
   0.000000000000e+00   9.900990099010e-03   1.980198019802e-02   2.970297029703e-02   3.960396039604e-02   4.950495049505e-02   5.940594059406e-02   6.930693069307e-02   7.920792079208e-02   8.910891089109e-02   9.900990099010e-02   1.089108910891e-01   1.188118811881e-01   1.287128712871e-01   1.386138613861e-01   1.485148514851e-01   1.584158415842e-01   1.683168316832e-01   1.782178217822e-01   1.881188118812e-01   1.980198019802e-01   2.079207920792e-01   2.178217821782e-01   2.277227722772e-01   2.376237623762e-01   2.475247524752e-01   2.574257425743e-01   2.673267326733e-01   2.772277227723e-01   2.871287128713e-01   2.970297029703e-01   3.069306930693e-01   3.168316831683e-01   3.267326732673e-01   3.366336633663e-01   3.465346534653e-01   3.564356435644e-01   3.663366336634e-01   3.762376237624e-01   3.861386138614e-01   3.960396039604e-01   4.059405940594e-01   4.158415841584e-01   4.257425742574e-01   4.356435643564e-01   4.455445544554e-01   4.554455445545e-01   4.653465346535e-01   4.752475247525e-01   4.851485148515e-01   4.950495049505e-01   5.049504950495e-01   5.148514851485e-01   5.247524752475e-01   5.346534653465e-01   5.445544554455e-01   5.544554455446e-01   5.643564356436e-01   5.742574257426e-01   5.841584158416e-01   5.940594059406e-01   6.039603960396e-01   6.138613861386e-01   6.237623762376e-01   6.336633663366e-01   6.435643564356e-01   6.534653465347e-01   6.633663366337e-01   6.732673267327e-01   6.831683168317e-01   6.930693069307e-01   7.029702970297e-01   7.128712871287e-01   7.227722772277e-01   7.326732673267e-01   7.425742574257e-01   7.524752475248e-01   7.623762376238e-01   7.722772277228e-01   7.821782178218e-01   7.920792079208e-01   8.019801980198e-01   8.118811881188e-01   8.217821782178e-01   8.316831683168e-01   8.415841584158e-01   8.514851485149e-01   8.613861386139e-01   8.712871287129e-01   8.811881188119e-01   8.910891089109e-01   9.009900990099e-01   9.108910891089e-01   9.207920792079e-01   9.306930693069e-01   9.405940594059e-01   9.504950495050e-01   9.603960396040e-01   9.702970297030e-01   9.801980198020e-01   9.900990099010e-01
Y_COORDINATES 101 float
   0.000000000000e+00   9.900990099010e-03   1.980198019802e-02   2.970297029703e-02   3.960396039604e-02   4.950495049505e-02   5.940594059406e-02   6.930693069307e-02   7.920792079208e-02   8.910891089109e-02   9.900990099010e-02   1.089108910891e-01   1.188118811881e-01   1.287128712871e-01   1.386138613861e-01   1.485148514851e-01   1.584158415842e-01   1.683168316832e-01   1.782178217822e-01   1.881188118812e-01   1.980198019802e-01   2.079207920792e-01   2.178217821782e-01   2.277227722772e-01   2.376237623762e-01   2.475247524752e-01   2.574257425743e-01   2.673267326733e-01   2.772277227723e-01   2.871287128713e-01   2.970297029703e-01   3.069306930693e-01   3.168316831683e-01   3.267326732673e-01   3.366336633663e-01   3.465346534653e-01   3.564356435644e-01   3.663366336634e-01   3.762376237624e-01   3.861386138614e-01   3.960396039604e-01   4.059405940594e-01   4.158415841584e-01   4.257425742574e-01   4.356435643564e-01   4.455445544554e-01   4.554455445545e-01   4.653465346535e-01   4.752475247525e-01   4.851485148515e-01   4.950495049505e-01   5.049504950495e-01   5.148514851485e-01   5.247524752475e-01   5.346534653465e-01   5.445544554455e-01   5.544554455446e-01   5.643564356436e-01   5.742574257426e-01   5.841584158416e-01   5.940594059406e-01   6.039603960396e-01   6.138613861386e-01   6.237623762376e-01   6.336633663366e-01   6.435643564356e-01   6.534653465347e-01   6.633663366337e-01   6.732673267327e-01   6.831683168317e-01   6.930693069307e-01   7.029702970297e-01   7.128712871287e-01   7.227722772277e-01   7.326732673267e-01   7.425742574257e-01   7.524752475248e-01   7.623762376238e-01   7.722772277228e-01   7.821782178218e-01   7.920792079208e-01   8.019801980198e-01   8.118811881188e-01   8.217821782178e-01   8.316831683168e-01   8.415841584158e-01   8.514851485149e-01   8.613861386139e-01   8.712871287129e-01   8.811881188119e-01   8.910891089109e-01   9.009900990099e-01   9.108910891089e-01   9.207920792079e-01   9.306930693069e-01   9.405940594059e-01   9.504950495050e-01   9.603960396040e-01   9.702970297030e-01   9.801980198020e-01   9.900990099010e-01
Z_COORDINATES 1 float
  0.000000000000e+00
POINT_DATA 10201
VECTORS E_field float
  0.000000000000e+00 0.000000000000e+00 0.000000000000e+00
  0.000000000000e+00 0.000000000000e+00 0.000000000000e+00
  0.000000000000e+00 0.000000000000e+00 0.000000000000e+00
  0.000000000000e+00 0.000000000000e+00 0.000000000000e+00
  0.000000000000e+00 0.000000000000e+00 0.000000000000e+00
  0.000000000000e+00 0.000000000000e+00 0.000000000000e+00
  0.000000000000e+00 0.000000000000e+00 0.000000000000e+00
  0.000000000000e+00 0.000000000000e+00 0.000000000000e+00
  0.000000000000e+00 0.000000000000e+00 0.000000000000e+00
  0.000000000000e+00 0.000000000000e+00 0.000000000000e+00
  0.000000000000e+00 0.000000000000e+00 0.000000000000e+00
  0.000000000000e+00 0.000000000000e+00 0.000000000000e+00
  0.000000000000e+00 0.000000000000e+00 0.000000000000e+00
  0.000000000000e+00 0.000000000000e+00 0.000000000000e+00
  0.000000000000e+00 0.000000000000e+00 0.000000000000e+00
  0.000000000000e+00 0.000000000000e+00 0.000000000000e+00
  0.000000000000e+00 0.000000000000e+00 0.000000000000e+00
  0.000000000000e+00 0.000000000000e+00 0.000000000000e+00
  0.000000000000e+00 0.000000000000e+00 0.000000000000e+00
  0.000000000000e+00 0.000000000000e+00 0.000000000000e+00
  0.000000000000e+00 0.000000000000e+00 0.000000000000e+00
  0.000000000000e+00 0.000000000000e+00 0.000000000000e+00
  0.000000000000e+00 0.000000000000e+00 0.000000000000e+00
  0.000000000000e+00 0.000000000000e+00 0.000000000000e+00
  0.000000000000e+00 0.000000000000e+00 0.000000000000e+00
  0.000000000000e+00 0.000000000000e+00 0.000000000000e+00
  0.000000000000e+00 0.000000000000e+00 0.000000000000e+00
  0.000000000000e+00 0.000000000000e+00 0.000000000000e+00
  0.000000000000e+00 0.000000000000e+00 0.000000000000e+00
  0.000000000000e+00 0.000000000000e+00 0.000000000000e+00
  0.000000000000e+00 0.000000000000e+00 0.000000000000e+00
  0.000000000000e+00 0.000000000000e+00 0.000000000000e+00
  0.000000000000e+00 0.000000000000e+00 0.000000000000e+00
  0.000000000000e+00 0.000000000000e+00 0.000000000000e+00
  0.000000000000e+00 0.000000000000e+00 0.000000000000e+00
  0.000000000000e+00 0.000000000000e+00 0.000000000000e+00
  0.000000000000e+00 0.000000000000e+00 0.000000000000e+00
  0.000000000000e+00 0.000000000000e+00 0.000000000000e+00
  0.000000000000e+00 0.000000000000e+00 0.000000000000e+00
  0.000000000000e+00 0.000000000000e+00 0.000000000000e+00
  0.000000000000e+00 0.000000000000e+00 0.000000000000e+00
  0.000000000000e+00 0.000000000000e+00 0.000000000000e+00
  0.000000000000e+00 0.000000000000e+00 0.000000000000e+00
  0.000000000000e+00 0.000000000000e+00 0.000000000000e+00
  0.000000000000e+00 0.000000000000e+00 0.000000000000e+00
  0.000000000000e+00 0.000000000000e+00 0.000000000000e+00
  0.000000000000e+00 0.000000000000e+00 0.000000000000e+00
  0.000000000000e+00 0.000000000000e+00 0.000000000000e+00
  0.000000000000e+00 0.000000000000e+00 0.000000000000e+00
  0.000000000000e+00 0.000000000000e+00 0.000000000000e+00
  0.000000000000e+00 0.000000000000e+00 0.000000000000e+00
  0.000000000000e+00 0.000000000000e+00 0.000000000000e+00
  0.000000000000e+00 0.000000000000e+00 0.000000000000e+00
  0.000000000000e+00 0.000000000000e+00 0.000000000000e+00
  0.000000000000e+00 0.000000000000e+00 0.000000000000e+00
  0.000000000000e+00 0.000000000000e+00 0.000000000000e+00
  0.000000000000e+00 0.000000000000e+00 0.000000000000e+00
  0.000000000000e+00 0.000000000000e+00 0.000000000000e+00
  0.000000000000e+00 0.000000000000e+00 0.000000000000e+00
  0.000000000000e+00 0.000000000000e+00 0.000000000000e+00
  0.000000000000e+00 0.000000000000e+00 0.000000000000e+00
  0.000000000000e+00 0.000000000000e+00 0.000000000000e+00
  0.000000000000e+00 0.000000000000e+00 0.000000000000e+00
  0.000000000000e+00 0.000000000000e+00 0.000000000000e+00
  0.000000000000e+00 0.000000000000e+00 0.000000000000e+00
  0.000000000000e+00 0.000000000000e+00 0.000000000000e+00
  0.000000000000e+00 0.000000000000e+00 0.000000000000e+00
  0.000000000000e+00 0.000000000000e+00 0.000000000000e+00
  0.000000000000e+00 0.000000000000e+00 0.000000000000e+00
  0.000000000000e+00 0.000000000000e+00 0.000000000000e+00
  0.000000000000e+00 0.000000000000e+00 0.000000000000e+00
  0.000000000000e+00 0.000000000000e+00 0.000000000000e+00
  0.000000000000e+00 0.000000000000e+00 0.000000000000e+00
  0.000000000000e+00 0.000000000000e+00 0.000000000000e+00
  0.000000000000e+00 0.000000000000e+00 0.000000000000e+00
  0.000000000000e+00 0.000000000000e+00 0.000000000000e+00
  0.000000000000e+00 0.000000000000e+00 0.000000000000e+00
  0.000000000000e+00 0.000000000000e+00 0.000000000000e+00
  0.000000000000e+00 0.000000000000e+00 0.000000000000e+00
  0.000000000000e+00 0.000000000000e+00 0.000000000000e+00
  0.000000000000e+00 0.000000000000e+00 0.000000000000e+00
  0.000000000000e+00 0.000000000000e+00 0.000000000000e+00
  0.000000000000e+00 0.000000000000e+00 0.000000000000e+00
  0.000000000000e+00 0.000000000000e+00 0.000000000000e+00
  0.000000000000e+00 0.000000000000e+00 0.000000000000e+00
  0.000000000000e+00 0.000000000000e+00 0.000000000000e+00
  0.000000000000e+00 0.000000000000e+00 0.000000000000e+00
  0.000000000000e+00 0.000000000000e+00 0.000000000000e+00
  0.000000000000e+00 0.000000000000e+00 0.000000000000e+00
  0.000000000000e+00 0.000000000000e+00 0.000000000000e+00
  0.000000000000e+00 0.000000000000e+00 0.000000000000e+00
  0.000000000000e+00 0.000000000000e+00 0.000000000000e+00
  0.000000000000e+00 0.000000000000e+00 0.000000000000e+00
  0.000000000000e+00 0.000000000000e+00 0.000000000000e+00
  0.000000000000e+00 0.000000000000e+00 0.000000000000e+00
  0.000000000000e+00 0.000000000000e+00 0.000000000000e+00
  0.000000000000e+00 0.000000000000e+00 0.000000000000e+00
  0.000000000000e+00 0.000000000000e+00 0.000000000000e+00
  0.000000000000e+00 0.000000000000e+00 0.000000000000e+00
  0.000000000000e+00 0.000000000000e+00 0.000000000000e+00
  0.000000000000e+00 0.000000000000e+00 0.000000000000e+00
  0.000000000000e+00 0.000000000000e+00 0.000000000000e+00
  -1.979598329577e-02 1.979598329577e-02 0.000000000000e+00
  -1.920505447522e-02 5.763923789001e-02 0.000000000000e+00
  -1.795109371291e-02 8.979778434425e-02 0.000000000000e+00
  -1.595309189065e-02 1.114627038595e-01 0.000000000000e+00
  -1.321109406766e-02 1.175348549335e-01 0.000000000000e+00
  -9.872724296450e-03 1.041069700500e-01 0.000000000000e+00
  -6.241525230301e-03 7.016106199853e-02 0.000000000000e+00
  -2.724260227929e-03 1.869143912003e-02 0.000000000000e+00
  2.580983645164e-04 -4.323849961486e-02 0.000000000000e+00
  2.361205556790e-03 -1.055855935563e-01 0.000000000000e+00
  3.382848331097e-03 -1.573275211803e-01 0.000000000000e+00
  3.290441507099e-03 -1.889307360441e-01 0.000000000000e+00
  2.210273485724e-03 -1.946774460576e-01 0.000000000000e+00
  3.858883824486e-04 -1.741657457788e-01 0.000000000000e+00
  -1.882415776561e-03 -1.324411327750e-01 0.000000000000e+00
  -4.302123517885e-03 -7.863784242838e-02 0.000000000000e+00
  -6.642212813380e-03 -2.355109073715e-02 0.000000000000e+00
  -8.765290498716e-03 2.306006143808e-02 0.000000000000e+00
  -1.063431556861e-02 5.462590426906e-02 0.000000000000e+00
  -1.229651737061e-02 6.887352720367e-02 0.000000000000e+00
  -1.385091066383e-02 6.779405317549e-02 0.000000000000e+00
  -1.540740923411e-02 5.666171312530e-02 0.000000000000e+00
  -1.704635075491e-02 4.241591378428e-02 0.000000000000e+00
  -1.878725600020e-02 3.176665181468e-02 0.000000000000e+00
  -2.057354527185e-02 2.944617340926e-02 0.000000000000e+00
  -2.227537814227e-02 3.706273557369e-02 0.000000000000e+00
  -2.370763467439e-02 5.289845338805e-02 0.000000000000e+00
  -2.465697442475e-02 7.269334916546e-02 0.000000000000e+00
  -2.491204635457e-02 9.109419949755e-02 0.000000000000e+00
  -2.429328502540e-02 1.032243731236e-01 0.000000000000e+00
  -2.268131553940e-02 1.058707979989e-01 0.000000000000e+00
  -2.004401957217e-02 9.803020931029e-02 0.000000000000e+00
  -1.646077318613e-02 8.083389170087e-02 0.000000000000e+00
  -1.213856223097e-02 5.703098590831e-02 0.000000000000e+00
  -7.410859069050e-03 3.023561982389e-02 0.000000000000e+00
  -2.709802701624e-03 4.116866093245e-03 0.000000000000e+00
  1.492411329265e-03 -1.829023449819e-02 0.000000000000e+00
  4.767251914949e-03 -3.496762625812e-02 0.000000000000e+00
  6.822926361666e-03 -4.488228770870e-02 0.000000000000e+00
  7.584347441848e-03 -4.763306187392e-02 0.000000000000e+00
  7.235418399772e-03 -4.309697632895e-02 0.000000000000e+00
  6.201829950724e-03 -3.144226416937e-02 0.000000000000e+00
  5.062364168012e-03 -1.361795422361e-02 0.000000000000e+00
  4.396623439869e-03 8.006083626664e-03 0.000000000000e+00
  4.605498195351e-03 2.945582533525e-02 0.000000000000e+00
  5.766176981049e-03 4.588059266788e-02 0.000000000000e+00
  7.588022748453e-03 5.309828534659e-02 0.000000000000e+00
  9.506547190820e-03 4.928880529186e-02 0.000000000000e+00
  1.089565367211e-02 3.596677741974e-02 0.000000000000e+00
  1.131930331540e-02 1.767506249549e-02 0.000000000000e+00
  1.071601503832e-02 4.521551792618e-04 0.000000000000e+00
  9.432731667327e-03 -1.031100519687e-02 0.000000000000e+00
  8.090415315877e-03 -1.174986969783e-02 0.000000000000e+00
  7.339372583331e-03 -4.383978029514e-03 0.000000000000e+00
  7.608898227538e-03 8.367895741730e-03 0.000000000000e+00
  8.951165672842e-03 2.174471239883e-02 0.000000000000e+00
  1.102987061718e-02 3.151106503597e-02 0.000000000000e+00
  1.323930936179e-02 3.525948866695e-02 0.000000000000e+00
  1.489251139842e-02 3.263377248659e-02 0.000000000000e+00
  1.540557704074e-02 2.459760112272e-02 0.000000000000e+00
  1.442513805994e-02 1.237683195987e-02 0.000000000000e+00
  1.187839742304e-02 -3.237874900826e-03 0.000000000000e+00
  7.952658407888e-03 -2.190720862786e-02 0.000000000000e+00
  3.026061577777e-03 -4.323817437384e-02 0.000000000000e+00
  -2.424563471480e-03 -6.618775028303e-02 0.000000000000e+00
  -7.914580321490e-03 -8.875984948833e-02 0.000000000000e+00
  -1.302247991733e-02 -1.081526087346e-01 0.000000000000e+00
  -1.743100568842e-02 -1.213013413881e-01 0.000000000000e+00
  -2.093905620365e-02 -1.256603944994e-01 0.000000000000e+00
  -2.345314300414e-02 -1.200351289537e-01 0.000000000000e+00
  -2.496980403956e-02 -1.052391636192e-01 0.000000000000e+00
  -2.555747494741e-02 -8.431005368678e-02 0.000000000000e+00
  -2.534093850481e-02 -6.205152800143e-02 0.000000000000e+00
  -2.448691765019e-02 -4.386040525656e-02 0.000000000000e+00
  -2.318732438024e-02 -3.410813699723e-02 0.000000000000e+00
  -2.163735779277e-02 -3.461777398313e-02 0.000000000000e+00
  -2.000861224988e-02 -4.382101860525e-02 0.000000000000e+00
  -1.842141038665e-02 -5.694035434764e-02 0.000000000000e+00
  -1.692364687087e-02 -6.715110671702e-02 0.000000000000e+00
  -1.548366639475e-02 -6.735945546014e-02 0.000000000000e+00
  -1.400193645467e-02 -5.211796162429e-02 0.000000000000e+00
  -1.234192423974e-02 -1.924875653965e-02 0.000000000000e+00
  -1.037596323646e-02 2.917316283335e-02 0.000000000000e+00
  -8.037295561808e-03 8.676455345604e-02 0.000000000000e+00
  -5.365341585009e-03 1.438824291866e-01 0.000000000000e+00
  -2.529551663509e-03 1.896892698068e-01 0.000000000000e+00
  1.795496793803e-04 2.147691064521e-01 0.000000000000e+00
  2.395038961237e-03 2.135330945948e-01 0.000000000000e+00
  3.746315883679e-03 1.856544477241e-01 0.000000000000e+00
  3.943722572336e-03 1.361101556214e-01 0.000000000000e+00
  2.854661096969e-03 7.389927206756e-02 0.000000000000e+00
  5.505382570803e-04 9.897211957303e-03 0.000000000000e+00
  -2.692345634783e-03 -4.554228144285e-02 0.000000000000e+00
  -6.444989689123e-03 -8.466060529433e-02 0.000000000000e+00
  -1.022091763262e-02 -1.035757999686e-01 0.000000000000e+00
  -1.358474418846e-02 -1.024724513809e-01 0.000000000000e+00
  -1.623345890474e-02 -8.470155194289e-02 0.000000000000e+00
  -1.801859329726e-02 -5.521728169154e-02 0.000000000000e+00
  -1.890627314617e-02 -1.910609920110e-02 0.000000000000e+00
  0.000000000000e+00 0.000000000000e+00 0.000000000000e+00
  0.000000000000e+00 0.000000000000e+00 0.000000000000e+00
  -5.763923789000e-02 1.920505447522e-02 0.000000000000e+00
  -5.578433937072e-02 5.578433937072e-02 0.000000000000e+00
  -5.188943845496e-02 8.650382118547e-02 0.000000000000e+00
  -4.576388353939e-02 1.066331102805e-01 0.000000000000e+00
  -3.746524644430e-02 1.113238135945e-01 0.000000000000e+00
  -2.748245288945e-02 9.699684806299e-02 0.000000000000e+00
  -1.674878029787e-02 6.290631232783e-02 0.000000000000e+00
  -6.478433386047e-03 1.215857687654e-02 0.000000000000e+00
  2.099040371163e-03 -4.826546972102e-02 0.000000000000e+00
  8.003937231324e-03 -1.085666275026e-01 0.000000000000e+00
  1.069098565515e-02 -1.580551784322e-01 0.000000000000e+00
  1.011730468421e-02 -1.875369909973e-01 0.000000000000e+00
  6.696318220120e-03 -1.915700366190e-01 0.000000000000e+00
  1.164031636393e-03 -1.699164835304e-01 0.000000000000e+00
  -5.602831410628e-03 -1.276552278173e-01 0.000000000000e+00
  -1.277135152606e-02 -7.383551952932e-02 0.000000000000e+00
  -1.969760452294e-02 -1.908707134383e-02 0.000000000000e+00
  -2.600559536293e-02 2.702711057007e-02 0.000000000000e+00
  -3.159446467039e-02 5.811674951444e-02 0.000000000000e+00
  -3.658629963685e-02 7.203671872675e-02 0.000000000000e+00
  -4.123512294500e-02 7.083407825379e-02 0.000000000000e+00
  -4.581878575509e-02 5.976184942737e-02 0.000000000000e+00
  -5.053508839489e-02 4.567102164280e-02 0.000000000000e+00
  -5.542261350588e-02 3.513997431244e-02 0.000000000000e+00
  -6.032195214094e-02 3.275847881821e-02 0.000000000000e+00
  -6.488245054479e-02 4.001276143901e-02 0.000000000000e+00
  -6.860735993506e-02 5.510559344511e-02 0.000000000000e+00
  -7.092292531086e-02 7.375111423458e-02 0.000000000000e+00
  -7.125748017523e-02 9.062606122265e-02 0.000000000000e+00
  -6.912243589938e-02 1.009387057935e-01 0.000000000000e+00
  -6.419294018671e-02 1.016150001304e-01 0.000000000000e+00
  -5.638739205970e-02 9.184316308475e-02 0.000000000000e+00
  -4.593962271830e-02 7.298992219941e-02 0.000000000000e+00
  -3.344669194370e-02 4.805981368087e-02 0.000000000000e+00
  -1.986529115571e-02 2.089768810305e-02 0.000000000000e+00
  -6.430097782268e-03 -4.681451923830e-03 0.000000000000e+00
  5.516301811367e-03 -2.564053010056e-02 0.000000000000e+00
  1.476419525409e-02 -4.014006467581e-02 0.000000000000e+00
  2.050212266728e-02 -4.750345113786e-02 0.000000000000e+00
  2.254224941996e-02 -4.781344625816e-02 0.000000000000e+00
  2.143587096547e-02 -4.146128442052e-02 0.000000000000e+00
  1.841806442680e-02 -2.902656105277e-02 0.000000000000e+00
  1.514943960941e-02 -1.162556669223e-02 0.000000000000e+00
  1.328006300896e-02 8.548813482140e-03 0.000000000000e+00
  1.394049037361e-02 2.804379342663e-02 0.000000000000e+00
  1.733509203902e-02 4.273734419778e-02 0.000000000000e+00
  2.262331168319e-02 4.913146847804e-02 0.000000000000e+00
  2.819097187397e-02 4.576943759477e-02 0.000000000000e+00
  3.225320037046e-02 3.403481019482e-02 0.000000000000e+00
  3.356603781423e-02 1.787054267165e-02 0.000000000000e+00
  3.194741770014e-02 2.478583410927e-03 0.000000000000e+00
  2.837368106953e-02 -7.480413433771e-03 0.000000000000e+00
  2.460195889375e-02 -9.466422963272e-03 0.000000000000e+00
  2.248029201879e-02 -3.794715205612e-03 0.000000000000e+00
  2.323848140260e-02 6.750917826469e-03 0.000000000000e+00
  2.704128588415e-02 1.821661831580e-02 0.000000000000e+00
  3.294874281229e-02 2.705299717321e-02 0.000000000000e+00
  3.924689049230e-02 3.120997003531e-02 0.000000000000e+00
  4.397848851321e-02 3.029849099846e-02 0.000000000000e+00
  4.546840009032e-02 2.492990533905e-02 0.000000000000e+00
  4.269155046805e-02 1.580181630491e-02 0.000000000000e+00
  3.542214315561e-02 3.153288671953e-03 0.000000000000e+00
  2.418095204785e-02 -1.313144210040e-02 0.000000000000e+00
  1.004086455612e-02 -3.294725659498e-02 0.000000000000e+00
  -5.635851199399e-03 -5.535132726724e-02 0.000000000000e+00
  -2.145913963336e-02 -7.828296722644e-02 0.000000000000e+00
  -3.621725564041e-02 -9.876347539729e-02 0.000000000000e+00
  -4.899785793381e-02 -1.135013466630e-01 0.000000000000e+00
  -5.922434799852e-02 -1.197258486457e-01 0.000000000000e+00
  -6.663151502901e-02 -1.160484209770e-01 0.000000000000e+00
  -7.121295656332e-02 -1.031277690265e-01 0.000000000000e+00
  -7.316548584491e-02 -8.388124809018e-02 0.000000000000e+00
  -7.284095978020e-02 -6.302139610540e-02 0.000000000000e+00
  -7.070290712890e-02 -4.588261065854e-02 0.000000000000e+00
  -6.727896901706e-02 -3.680946297705e-02 0.000000000000e+00
  -6.310140992124e-02 -3.764397368661e-02 0.000000000000e+00
  -5.863562482454e-02 -4.688934954135e-02 0.000000000000e+00
  -5.420725993322e-02 -5.988759016608e-02 0.000000000000e+00
  -4.994664753213e-02 -6.996224681546e-02 0.000000000000e+00
  -4.576995497600e-02 -7.016498839395e-02 0.000000000000e+00
  -4.140961497171e-02 -5.515449863485e-02 0.000000000000e+00
  -3.649600314495e-02 -2.278584357077e-02 0.000000000000e+00
  -3.068088389899e-02 2.492916961524e-02 0.000000000000e+00
  -2.378077414846e-02 8.176976924896e-02 0.000000000000e+00
  -1.590583583095e-02 1.383303210994e-01 0.000000000000e+00
  -7.533030842688e-03 1.840327829843e-01 0.000000000000e+00
  5.109302722708e-04 2.096725308168e-01 0.000000000000e+00
  7.168929444121e-03 2.097561817764e-01 0.000000000000e+00
  1.135714863668e-02 1.838918644275e-01 0.000000000000e+00
  1.220940688409e-02 1.368230739820e-01 0.000000000000e+00
  9.303509744661e-03 7.718131232180e-02 0.000000000000e+00
  2.807584399806e-03 1.541521988780e-02 0.000000000000e+00
  -6.506155303835e-03 -3.850366577784e-02 0.000000000000e+00
  -1.740416029253e-02 -7.704857191630e-02 0.000000000000e+00
  -2.846405291868e-02 -9.635201277695e-02 0.000000000000e+00
  -3.839153353406e-02 -9.640493140134e-02 0.000000000000e+00
  -4.626313889048e-02 -8.024875184978e-02 0.000000000000e+00
  -5.160071821504e-02 -5.254736806756e-02 0.000000000000e+00
  -5.426650887281e-02 -1.822254231840e-02 0.000000000000e+00
  0.000000000000e+00 0.000000000000e+00 0.000000000000e+00
  0.000000000000e+00 0.000000000000e+00 0.000000000000e+00
  -8.979778434425e-02 1.795109371291e-02 0.000000000000e+00
  -8.650382118547e-02 5.188943845496e-02 0.000000000000e+00
  -7.970064894287e-02 7.970064894287e-02 0.000000000000e+00
  -6.922526130257e-02 9.683533996721e-02 0.000000000000e+00
  -5.533925225025e-02 9.893693776037e-02 0.000000000000e+00
  -3.898334828497e-02 8.304502637702e-02 0.000000000000e+00
  -2.176362802571e-02 4.890474116297e-02 0.000000000000e+00
  -5.665813753425e-03 -2.080131427045e-04 0.000000000000e+00
  7.379220388679e-03 -5.752138760109e-02 0.000000000000e+00
  1.591187388179e-02 -1.137482599758e-01 0.000000000000e+00
  1.921349624037e-02 -1.588622167414e-01 0.000000000000e+00
  1.737582485093e-02 -1.843186003277e-01 0.000000000000e+00
  1.118425773154e-02 -1.851758737050e-01 0.000000000000e+00
  1.870950980051e-03 -1.614650531091e-01 0.000000000000e+00
  -9.186792619801e-03 -1.182820515917e-01 0.000000000000e+00
  -2.074514734942e-02 -6.448182090985e-02 0.000000000000e+00
  -3.188755604242e-02 -1.037210827341e-02 0.000000000000e+00
  -4.210444491421e-02 3.483702721142e-02 0.000000000000e+00
  -5.126699262372e-02 6.505824989007e-02 0.000000000000e+00
  -5.952814972336e-02 7.834821041721e-02 0.000000000000e+00
  -6.718895343378e-02 7.683221358191e-02 0.000000000000e+00
  -7.455996446671e-02 6.571838794226e-02 0.000000000000e+00
  -8.183905923235e-02 5.170988053335e-02 0.000000000000e+00
  -8.902281517016e-02 4.117239647070e-02 0.000000000000e+00
  -9.586463679274e-02 3.846721691757e-02 0.000000000000e+00
  -1.018836891000e-01 4.488357405078e-02 0.000000000000e+00
  -1.064172145202e-01 5.849321564387e-02 0.000000000000e+00
  -1.087020817409e-01 7.496392463230e-02 0.000000000000e+00
  -1.079730252524e-01 8.901874920094e-02 0.000000000000e+00
  -1.035716290533e-01 9.600957734052e-02 0.000000000000e+00
  -9.506494473167e-02 9.310794854971e-02 0.000000000000e+00
  -8.237030210110e-02 7.985002390926e-02 0.000000000000e+00
  -6.587161654921e-02 5.803660648448e-02 0.000000000000e+00
  -4.649579458889e-02 3.114437666654e-02 0.000000000000e+00
  -2.570546283059e-02 3.441392581727e-03 0.000000000000e+00
  -5.368761015213e-03 -2.099705157230e-02 0.000000000000e+00
  1.250552237962e-02 -3.914561340813e-02 0.000000000000e+00
  2.613609733927e-02 -4.951344971791e-02 0.000000000000e+00
  3.436765389512e-02 -5.209954998312e-02 0.000000000000e+00
  3.700096701445e-02 -4.789078716420e-02 0.000000000000e+00
  3.495049719495e-02 -3.822709507049e-02 0.000000000000e+00
  3.014168026541e-02 -2.443412670665e-02 0.000000000000e+00
  2.510642236055e-02 -7.914118025523e-03 0.000000000000e+00
  2.232188430060e-02 9.491279827283e-03 0.000000000000e+00
  2.345423837626e-02 2.530854604320e-02 0.000000000000e+00
  2.876743082960e-02 3.676479789518e-02 0.000000000000e+00
  3.696557731237e-02 4.161764908837e-02 0.000000000000e+00
  4.561048190115e-02 3.907069260645e-02 0.000000000000e+00
  5.202095881674e-02 3.026085010266e-02 0.000000000000e+00
  5.432454666743e-02 1.802807769768e-02 0.000000000000e+00
  5.222552848596e-02 6.038686781256e-03 0.000000000000e+00
  4.715018074981e-02 -2.391432475131e-03 0.000000000000e+00
  4.169640492880e-02 -5.329906097353e-03 0.000000000000e+00
  3.862046815005e-02 -2.733628705925e-03 0.000000000000e+00
  3.978549742581e-02 3.766612293042e-03 0.000000000000e+00
  4.548498519716e-02 1.169863117205e-02 0.000000000000e+00
  5.436113309011e-02 1.878737905803e-02 0.000000000000e+00
  6.387516940797e-02 2.366340373334e-02 0.000000000000e+00
  7.108748704622e-02 2.590114126472e-02 0.000000000000e+00
  7.344634330871e-02 2.547848691404e-02 0.000000000000e+00
  6.935455588608e-02 2.212187151851e-02 0.000000000000e+00
  5.841390584113e-02 1.504329062023e-02 0.000000000000e+00
  4.136376943070e-02 3.269883327607e-03 0.000000000000e+00
  1.979889178158e-02 -1.364361698025e-02 0.000000000000e+00
  -4.224794869115e-03 -3.495456454043e-02 0.000000000000e+00
  -2.859056217099e-02 -5.849067425804e-02 0.000000000000e+00
  -5.144254911940e-02 -8.094566543458e-02 0.000000000000e+00
  -7.137996074328e-02 -9.860114272233e-02 0.000000000000e+00
  -8.751960254780e-02 -1.082599207247e-01 0.000000000000e+00
  -9.945980446104e-02 -1.081669799582e-01 0.000000000000e+00
  -1.071944622134e-01 -9.869311076058e-02 0.000000000000e+00
  -1.110182317441e-01 -8.253960754476e-02 0.000000000000e+00
  -1.114433968793e-01 -6.426239758075e-02 0.000000000000e+00
  -1.091288614390e-01 -4.909419727499e-02 0.000000000000e+00
  -1.048102778008e-01 -4.134039811074e-02 0.000000000000e+00
  -9.921993420591e-02 -4.288094124364e-02 0.000000000000e+00
  -9.299427996583e-02 -5.234382132111e-02 0.000000000000e+00
  -8.658080131882e-02 -6.527496192466e-02 0.000000000000e+00
  -8.016651947593e-02 -7.524976930086e-02 0.000000000000e+00
  -7.365178844127e-02 -7.556888949936e-02 0.000000000000e+00
  -6.668595191366e-02 -6.107677406135e-02 0.000000000000e+00
  -5.877064373259e-02 -2.969248815210e-02 0.000000000000e+00
  -4.942411966288e-02 1.667417088090e-02 0.000000000000e+00
  -3.838326539964e-02 7.208380396952e-02 0.000000000000e+00
  -2.579863689309e-02 1.275567195548e-01 0.000000000000e+00
  -1.236147358195e-02 1.729964162295e-01 0.000000000000e+00
  6.954120949436e-04 1.996080507797e-01 0.000000000000e+00
  1.175244705227e-02 2.021056276843e-01 0.000000000000e+00
  1.909863026991e-02 1.800080161094e-01 0.000000000000e+00
  2.130840447550e-02 1.376448898471e-01 0.000000000000e+00
  1.761043516696e-02 8.296336290468e-02 0.000000000000e+00
  8.145694274775e-03 2.559383554197e-02 0.000000000000e+00
  -5.977455478495e-03 -2.524539197510e-02 0.000000000000e+00
  -2.287896177437e-02 -6.250733443448e-02 0.000000000000e+00
  -4.031910596839e-02 -8.239321343861e-02 0.000000000000e+00
  -5.619657162400e-02 -8.455878446869e-02 0.000000000000e+00
  -6.894630172230e-02 -7.147356332771e-02 0.000000000000e+00
  -7.768554892425e-02 -4.724573006313e-02 0.000000000000e+00
  -8.208357983981e-02 -1.646035874949e-02 0.000000000000e+00
  0.000000000000e+00 0.000000000000e+00 0.000000000000e+00
  0.000000000000e+00 0.000000000000e+00 0.000000000000e+00
  -1.114627038595e-01 1.595309189065e-02 0.000000000000e+00
  -1.066331102805e-01 4.576388353939e-02 0.000000000000e+00
  -9.683533996721e-02 6.922526130257e-02 0.000000000000e+00
  -8.210553992582e-02 8.210553992582e-02 0.000000000000e+00
  -6.307981037355e-02 8.075499919717e-02 0.000000000000e+00
  -4.125729635202e-02 6.304854695341e-02 0.000000000000e+00
  -1.892078764232e-02 2.934499161761e-02 0.000000000000e+00
  1.278071063379e-03 -1.694493657533e-02 0.000000000000e+00
  1.690066858068e-02 -6.945209582786e-02 0.000000000000e+00
  2.624839279555e-02 -1.196979294570e-01 0.000000000000e+00
  2.866697296687e-02 -1.586327497901e-01 0.000000000000e+00
  2.456646382832e-02 -1.786098867511e-01 0.000000000000e+00
  1.519295996104e-02 -1.753195162950e-01 0.000000000000e+00
  2.248890118352e-03 -1.490640339250e-01 0.000000000000e+00
  -1.251882463892e-02 -1.048576124188e-01 0.000000000000e+00
  -2.765334780841e-02 -5.121338218369e-02 0.000000000000e+00
  -4.217391910577e-02 2.022432990802e-03 0.000000000000e+00
  -5.559854624220e-02 4.608400195542e-02 0.000000000000e+00
  -6.784230302758e-02 7.521757964096e-02 0.000000000000e+00
  -7.905718080334e-02 8.766491554172e-02 0.000000000000e+00
  -8.947233254968e-02 8.559146391416e-02 0.000000000000e+00