# vtk DataFile Version 3.0
Karman Output
ASCII
DATASET RECTILINEAR_GRID
DIMENSIONS 101 101 1
X_COORDINATES 101 float
   0.000000000000e+00   9.900990099010e-03   1.980198019802e-02   2.970297029703e-02   3.960396039604e-02   4.950495049505e-02   5.940594059406e-02   6.930693069307e-02   7.920792079208e-02   8.910891089109e-02   9.900990099010e-02   1.089108910891e-01   1.188118811881e-01   1.287128712871e-01   1.386138613861e-01   1.485148514851e-01   1.584158415842e-01   1.683168316832e-01   1.782178217822e-01   1.881188118812e-01   1.980198019802e-01   2.079207920792e-01   2.178217821782e-01   2.277227722772e-01   2.376237623762e-01   2.475247524752e-01   2.574257425743e-01   2.673267326733e-01   2.772277227723e-01   2.871287128713e-01   2.970297029703e-01   3.069306930693e-01   3.168316831683e-01   3.267326732673e-01   3.366336633663e-01   3.465346534653e-01   3.564356435644e-01   3.663366336634e-01   3.762376237624e-01   3.861386138614e-01   3.960396039604e-01   4.059405940594e-01   4.158415841584e-01   4.257425742574e-01   4.356435643564e-01   4.455445544554e-01   4.554455445545e-01   4.653465346535e-01   4.752475247525e-01   4.851485148515e-01   4.950495049505e-01   5.049504950495e-01   5.148514851485e-01   5.247524752475e-01   5.346534653465e-01   5.445544554455e-01   5.544554455446e-01   5.643564356436e-01   5.742574257426e-01   5.841584158416e-01   5.940594059406e-01   6.039603960396e-01   6.138613861386e-01   6.237623762376e-01   6.336633663366e-01   6.435643564356e-01   6.534653465347e-01   6.633663366337e-01   6.732673267327e-01   6.831683168317e-01   6.930693069307e-01   7.029702970297e-01   7.128712871287e-01   7.227722772277e-01   7.326732673267e-01   7.425742574257e-01   7.524752475248e-01   7.623762376238e-01   7.722772277228e-01   7.821782178218e-01   7.920792079208e-01   8.019801980198e-01   8.118811881188e-01   8.217821782178e-01   8.316831683168e-01   8.415841584158e-01   8.514851485149e-01   8.613861386139e-01   8.712871287129e-01   8.811881188119e-01   8.910891089109e-01   9.009900990099e-01   9.108910891089e-01   9.207920792079e-01   9.306930693069e-01   9.405940594059e-01   9.504950495050e-01   9.603960396040e-01   9.702970297030e-01   9.801980198020e-01   9.900990099010e-01
Y_COORDINATES 101 float
   0.000000000000e+00   9.900990099010e-03   1.980198019802e-02   2.970297029703e-02   3.960396039604e-02   4.950495049505e-02   5.940594059406e-02   6.930693069307e-02   7.920792079208e-02   8.910891089109e-02   9.900990099010e-02   1.089108910891e-01   1.188118811881e-01   1.287128712871e-01   1.386138613861e-01   1.485148514851e-01   1.584158415842e-01   1.683168316832e-01   1.782178217822e-01   1.881188118812e-01   1.980198019802e-01   2.079207920792e-01   2.178217821782e-01   2.277227722772e-01   2.376237623762e-01   2.475247524752e-01   2.574257425743e-01   2.673267326733e-01   2.772277227723e-01   2.871287128713e-01   2.970297029703e-01   3.069306930693e-01   3.168316831683e-01   3.267326732673e-01   3.366336633663e-01   3.465346534653e-01   3.564356435644e-01   3.663366336634e-01   3.762376237624e-01   3.861386138614e-01   3.960396039604e-01   4.059405940594e-01   4.158415841584e-01   4.257425742574e-01   4.356435643564e-01   4.455445544554e-01   4.554455445545e-01   4.653465346535e-01   4.752475247525e-01   4.851485148515e-01   4.950495049505e-01   5.049504950495e-01   5.148514851485e-01   5.247524752475e-01   5.346534653465e-01   5.445544554455e-01   5.544554455446e-01   5.643564356436e-01   5.742574257426e-01   5.841584158416e-01   5.940594059406e-01   6.039603960396e-01   6.138613861386e-01   6.237623762376e-01   6.336633663366e-01   6.435643564356e-01   6.534653465347e-01   6.633663366337e-01   6.732673267327e-01   6.831683168317e-01   6.930693069307e-01   7.029702970297e-01   7.128712871287e-01   7.227722772277e-01   7.326732673267e-01   7.425742574257e-01   7.524752475248e-01   7.623762376238e-01   7.722772277228e-01   7.821782178218e-01   7.920792079208e-01   8.019801980198e-01   8.118811881188e-01   8.217821782178e-01   8.316831683168e-01   8.415841584158e-01   8.514851485149e-01   8.613861386139e-01   8.712871287129e-01   8.811881188119e-01   8.910891089109e-01   9.009900990099e-01   9.108910891089e-01   9.207920792079e-01   9.306930693069e-01   9.405940594059e-01   9.504950495050e-01   9.603960396040e-01   9.702970297030e-01   9.801980198020e-01   9.900990099010e-01
Z_COORDINATES 1 float
  0.000000000000e+00
POINT_DATA 10201
VECTORS E_field float
  0.000000000000e+00 0.000000000000e+00 0.000000000000e+00
  0.000000000000e+00 0.000000000000e+00 0.000000000000e+00
  0.000000000000e+00 0.000000000000e+00 0.000000000000e+00
  0.000000000000e+00 0.000000000000e+00 0.000000000000e+00
  0.000000000000e+00 0.000000000000e+00 0.000000000000e+00
  0.000000000000e+00 0.000000000000e+00 0.000000000000e+00
  0.000000000000e+00 0.000000000000e+00 0.000000000000e+00
  0.000000000000e+00 0.000000000000e+00 0.000000000000e+00
  0.000000000000e+00 0.000000000000e+00 0.000000000000e+00
  0.000000000000e+00 0.000000000000e+00 0.000000000000e+00
  0.000000000000e+00 0.000000000000e+00 0.000000000000e+00
  0.000000000000e+00 0.000000000000e+00 0.000000000000e+00
  0.000000000000e+00 0.000000000000e+00 0.000000000000e+00
  0.000000000000e+00 0.000000000000e+00 0.000000000000e+00
  0.000000000000e+00 0.000000000000e+00 0.000000000000e+00
  0.000000000000e+00 0.000000000000e+00 0.000000000000e+00
  0.000000000000e+00 0.000000000000e+00 0.000000000000e+00
  0.000000000000e+00 0.000000000000e+00 0.000000000000e+00
  0.000000000000e+00 0.000000000000e+00 0.000000000000e+00
  0.000000000000e+00 0.000000000000e+00 0.000000000000e+00
  0.000000000000e+00 0.000000000000e+00 0.000000000000e+00
  0.000000000000e+00 0.000000000000e+00 0.000000000000e+00
  0.000000000000e+00 0.000000000000e+00 0.000000000000e+00
  0.000000000000e+00 0.000000000000e+00 0.000000000000e+00
  0.000000000000e+00 0.000000000000e+00 0.000000000000e+00
  0.000000000000e+00 0.000000000000e+00 0.000000000000e+00
  0.000000000000e+00 0.000000000000e+00 0.000000000000e+00
  0.000000000000e+00 0.000000000000e+00 0.000000000000e+00
  0.000000000000e+00 0.000000000000e+00 0.000000000000e+00
  0.000000000000e+00 0.000000000000e+00 0.000000000000e+00
  0.000000000000e+00 0.000000000000e+00 0.000000000000e+00
  0.000000000000e+00 0.000000000000e+00 0.000000000000e+00
  0.000000000000e+00 0.000000000000e+00 0.000000000000e+00
  0.000000000000e+00 0.000000000000e+00 0.000000000000e+00
  0.000000000000e+00 0.000000000000e+00 0.000000000000e+00
  0.000000000000e+00 0.000000000000e+00 0.000000000000e+00
  0.000000000000e+00 0.000000000000e+00 0.000000000000e+00
  0.000000000000e+00 0.000000000000e+00 0.000000000000e+00
  0.000000000000e+00 0.000000000000e+00 0.000000000000e+00
  0.000000000000e+00 0.000000000000e+00 0.000000000000e+00
  0.000000000000e+00 0.000000000000e+00 0.000000000000e+00
  0.000000000000e+00 0.000000000000e+00 0.000000000000e+00
  0.000000000000e+00 0.000000000000e+00 0.000000000000e+00
  0.000000000000e+00 0.000000000000e+00 0.000000000000e+00
  0.000000000000e+00 0.000000000000e+00 0.000000000000e+00
  0.000000000000e+00 0.000000000000e+00 0.000000000000e+00
  0.000000000000e+00 0.000000000000e+00 0.000000000000e+00
  0.000000000000e+00 0.000000000000e+00 0.000000000000e+00
  0.000000000000e+00 0.000000000000e+00 0.000000000000e+00
  0.000000000000e+00 0.000000000000e+00 0.000000000000e+00
  0.000000000000e+00 0.000000000000e+00 0.000000000000e+00
  0.000000000000e+00 0.000000000000e+00 0.000000000000e+00
  0.000000000000e+00 0.000000000000e+00 0.000000000000e+00
  0.000000000000e+00 0.000000000000e+00 0.000000000000e+00
  0.000000000000e+00 0.000000000000e+00 0.000000000000e+00
  0.000000000000e+00 0.000000000000e+00 0.000000000000e+00
  0.000000000000e+00 0.000000000000e+00 0.000000000000e+00
  0.000000000000e+00 0.000000000000e+00 0.000000000000e+00
  0.000000000000e+00 0.000000000000e+00 0.000000000000e+00
  0.000000000000e+00 0.000000000000e+00 0.000000000000e+00
  0.000000000000e+00 0.000000000000e+00 0.000000000000e+00
  0.000000000000e+00 0.000000000000e+00 0.000000000000e+00
  0.000000000000e+00 0.000000000000e+00 0.000000000000e+00
  0.000000000000e+00 0.000000000000e+00 0.000000000000e+00
  0.000000000000e+00 0.000000000000e+00 0.000000000000e+00
  0.000000000000e+00 0.000000000000e+00 0.000000000000e+00
  0.000000000000e+00 0.000000000000e+00 0.000000000000e+00
  0.000000000000e+00 0.000000000000e+00 0.000000000000e+00
  0.000000000000e+00 0.000000000000e+00 0.000000000000e+00
  0.000000000000e+00 0.000000000000e+00 0.000000000000e+00
  0.000000000000e+00 0.000000000000e+00 0.000000000000e+00
  0.000000000000e+00 0.000000000000e+00 0.000000000000e+00
  0.000000000000e+00 0.000000000000e+00 0.000000000000e+00
  0.000000000000e+00 0.000000000000e+00 0.000000000000e+00
  0.000000000000e+00 0.000000000000e+00 0.000000000000e+00
  0.000000000000e+00 0.000000000000e+00 0.000000000000e+00
  0.000000000000e+00 0.000000000000e+00 0.000000000000e+00
  0.000000000000e+00 0.000000000000e+00 0.000000000000e+00
  0.000000000000e+00 0.000000000000e+00 0.000000000000e+00
  0.000000000000e+00 0.000000000000e+00 0.000000000000e+00
  0.000000000000e+00 0.000000000000e+00 0.000000000000e+00
  0.000000000000e+00 0.000000000000e+00 0.000000000000e+00
  0.000000000000e+00 0.000000000000e+00 0.000000000000e+00
  0.000000000000e+00 0.000000000000e+00 0.000000000000e+00
  0.000000000000e+00 0.000000000000e+00 0.000000000000e+00
  0.000000000000e+00 0.000000000000e+00 0.000000000000e+00
  0.000000000000e+00 0.000000000000e+00 0.000000000000e+00
  0.000000000000e+00 0.000000000000e+00 0.000000000000e+00
  0.000000000000e+00 0.000000000000e+00 0.000000000000e+00
  0.000000000000e+00 0.000000000000e+00 0.000000000000e+00
  0.000000000000e+00 0.000000000000e+00 0.000000000000e+00
  0.000000000000e+00 0.000000000000e+00 0.000000000000e+00
  0.000000000000e+00 0.000000000000e+00 0.000000000000e+00
  0.000000000000e+00 0.000000000000e+00 0.000000000000e+00
  0.000000000000e+00 0.000000000000e+00 0.000000000000e+00
  0.000000000000e+00 0.000000000000e+00 0.000000000000e+00
  0.000000000000e+00 0.000000000000e+00 0.000000000000e+00
  0.000000000000e+00 0.000000000000e+00 0.000000000000e+00
  0.000000000000e+00 0.000000000000e+00 0.000000000000e+00
  0.000000000000e+00 0.000000000000e+00 0.000000000000e+00
  0.000000000000e+00 0.000000000000e+00 0.000000000000e+00
  0.000000000000e+00 0.000000000000e+00 0.000000000000e+00
  -3.733759828902e-03 3.733759828903e-03 0.000000000000e+00
  -3.705650984847e-03 1.087411781856e-02 0.000000000000e+00
  -3.653240089645e-03 1.729068739913e-02 0.000000000000e+00
  -3.577215528489e-03 2.316365936605e-02 0.000000000000e+00
  -3.463999183696e-03 2.909003498013e-02 0.000000000000e+00
  -3.274934640592e-03 3.544876012834e-02 0.000000000000e+00
  -2.940609172949e-03 4.163288029326e-02 0.000000000000e+00
  -2.363494829836e-03 4.568832535162e-02 0.000000000000e+00
  -1.429478679656e-03 4.478759056239e-02 0.000000000000e+00
  -2.687557920318e-05 3.652978199697e-02 0.000000000000e+00
  1.928822547709e-03 2.051023865234e-02 0.000000000000e+00
  4.465970532361e-03 -7.005627156018e-04 0.000000000000e+00
  7.526848417276e-03 -2.183252696462e-02 0.000000000000e+00
  1.094506439250e-02 -3.647855888763e-02 0.000000000000e+00
  1.444382234395e-02 -3.928875079393e-02 0.000000000000e+00
  1.766794776886e-02 -2.782125091554e-02 0.000000000000e+00
  2.025166440109e-02 -3.293151086151e-03 0.000000000000e+00
  2.190585741436e-02 2.995297100524e-02 0.000000000000e+00
  2.249329563579e-02 6.588766695134e-02 0.000000000000e+00
  2.205935132444e-02 9.848148386998e-02 0.000000000000e+00
  2.080283148265e-02 1.230421904017e-01 0.000000000000e+00
  1.899872253072e-02 1.368712333736e-01 0.000000000000e+00
  1.690675523920e-02 1.392088469387e-01 0.000000000000e+00
  1.470391733056e-02 1.306551007489e-01 0.000000000000e+00
  1.246333882085e-02 1.123573387039e-01 0.000000000000e+00
  1.017640770394e-02 8.526815100519e-02 0.000000000000e+00
  7.795083855328e-03 4.973677608999e-02 0.000000000000e+00
  5.268037962474e-03 5.607686546264e-03 0.000000000000e+00
  2.556850239378e-03 -4.715314582624e-02 0.000000000000e+00
  -3.637038479937e-04 -1.074953231480e-01 0.000000000000e+00
  -3.506907868148e-03 -1.723783683581e-01 0.000000000000e+00
  -6.865275468877e-03 -2.364024252348e-01 0.000000000000e+00
  -1.039172440803e-02 -2.923387869275e-01 0.000000000000e+00
  -1.398207443275e-02 -3.326100876624e-01 0.000000000000e+00
  -1.747337555368e-02 -3.513566437644e-01 0.000000000000e+00
  -2.066620998408e-02 -3.463769974355e-01 0.000000000000e+00
  -2.336724624932e-02 -3.201280905925e-01 0.000000000000e+00
  -2.543739967744e-02 -2.792328121581e-01 0.000000000000e+00
  -2.682661654907e-02 -2.325294082928e-01 0.000000000000e+00
  -2.758106877994e-02 -1.883631336295e-01 0.000000000000e+00
  -2.782049644966e-02 -1.522101542772e-01 0.000000000000e+00
  -2.769669426407e-02 -1.255885001936e-01 0.000000000000e+00
  -2.735179859259e-02 -1.065944872450e-01 0.000000000000e+00
  -2.689316955797e-02 -9.163510600857e-02 0.000000000000e+00
  -2.639167009720e-02 -7.741858303291e-02 0.000000000000e+00
  -2.589769896513e-02 -6.226283554501e-02 0.000000000000e+00
  -2.546098394706e-02 -4.624506977869e-02 0.000000000000e+00
  -2.513989488510e-02 -3.037044930167e-02 0.000000000000e+00
  -2.499361192464e-02 -1.543098995411e-02 0.000000000000e+00
  -2.506154738823e-02 -1.304078642958e-03 0.000000000000e+00
  -2.534265662922e-02 1.292149894003e-02 0.000000000000e+00
  -2.578778288848e-02 2.817859518197e-02 0.000000000000e+00
  -2.631058089071e-02 4.463034296163e-02 0.000000000000e+00
  -2.681153408653e-02 6.148598293517e-02 0.000000000000e+00
  -2.720195782831e-02 7.764763758091e-02 0.000000000000e+00
  -2.741521438738e-02 9.283952161282e-02 0.000000000000e+00
  -2.740022177688e-02 1.084893717249e-01 0.000000000000e+00
  -2.710302308695e-02 1.276763155383e-01 0.000000000000e+00
  -2.644975656391e-02 1.539221313085e-01 0.000000000000e+00
  -2.534470876135e-02 1.892481583828e-01 0.000000000000e+00
  -2.368976942634e-02 2.324042846436e-01 0.000000000000e+00
  -2.142002331703e-02 2.782168575950e-01 0.000000000000e+00
  -1.854043217087e-02 3.185363818764e-01 0.000000000000e+00
  -1.514603724140e-02 3.445145341415e-01 0.000000000000e+00
  -1.141446368250e-02 3.493037452802e-01 0.000000000000e+00
  -7.571475837680e-03 3.300921305122e-01 0.000000000000e+00
  -3.841936034275e-03 2.887312435618e-01 0.000000000000e+00
  -4.045036812668e-04 2.308595718982e-01 0.000000000000e+00
  2.633633843608e-03 1.640250516421e-01 0.000000000000e+00
  5.235078651231e-03 9.561103775262e-02 0.000000000000e+00
  7.409751049424e-03 3.130900808166e-02 0.000000000000e+00
  9.188354547629e-03 -2.544880430516e-02 0.000000000000e+00
  1.060975082227e-02 -7.311626148338e-02 0.000000000000e+00
  1.172938155388e-02 -1.111005122471e-01 0.000000000000e+00
  1.263822845903e-02 -1.388100923339e-01 0.000000000000e+00
  1.346924848425e-02 -1.551429193379e-01 0.000000000000e+00
  1.437141290396e-02 -1.586192185175e-01 0.000000000000e+00
  1.545103640163e-02 -1.480712221414e-01 0.000000000000e+00
  1.670451747826e-02 -1.235862884940e-01 0.000000000000e+00
  1.797952461567e-02 -8.731344489351e-02 0.000000000000e+00
  1.899308668558e-02 -4.377793787346e-02 0.000000000000e+00
  1.940853773952e-02 5.231141857303e-04 0.000000000000e+00
  1.894376484527e-02 3.827228649050e-02 0.000000000000e+00
  1.746742999046e-02 6.301491425385e-02 0.000000000000e+00
  1.504589514146e-02 7.091493013158e-02 0.000000000000e+00
  1.192663853417e-02 6.197140281580e-02 0.000000000000e+00
  8.470384136475e-03 4.013954509346e-02 0.000000000000e+00
  5.060774686629e-03 1.214175287887e-02 0.000000000000e+00
  2.021974974693e-03 -1.469305575347e-02 0.000000000000e+00
  -4.351605663886e-04 -3.472400605590e-02 0.000000000000e+00
  -2.231010168120e-03 -4.546582192799e-02 0.000000000000e+00
  -3.402749112908e-03 -4.766077144324e-02 0.000000000000e+00
  -4.067783898039e-03 -4.409657171523e-02 0.000000000000e+00
  -4.378297578416e-03 -3.791176169315e-02 0.000000000000e+00
  -4.479995348804e-03 -3.126615203744e-02 0.000000000000e+00
  -4.484790462635e-03 -2.489713097672e-02 0.000000000000e+00
  -4.461290356942e-03 -1.851703875957e-02 0.000000000000e+00
  -4.440591595340e-03 -1.159198636007e-02 0.000000000000e+00
  -4.430542588877e-03 -3.968394365993e-03 0.000000000000e+00
  0.000000000000e+00 0.000000000000e+00 0.000000000000e+00
  0.000000000000e+00 0.000000000000e+00 0.000000000000e+00
  -1.087411781856e-02 3.705650984847e-03 0.000000000000e+00
  -1.079517949864e-02 1.079517949864e-02 0.000000000000e+00
  -1.064714351055e-02 1.716917883574e-02 0.000000000000e+00
  -1.042807179635e-02 2.299007165407e-02 0.000000000000e+00
  -1.008976618253e-02 2.881210073350e-02 0.000000000000e+00
  -9.505266722549e-03 3.495313037188e-02 0.000000000000e+00
  -8.454020392274e-03 4.074293825180e-02 0.000000000000e+00
  -6.634997378907e-03 4.418213003660e-02 0.000000000000e+00
  -3.708713449259e-03 4.243348579758e-02 0.000000000000e+00
  6.388419518328e-04 3.313372826024e-02 0.000000000000e+00
  6.619900990298e-03 1.596953522369e-02 0.000000000000e+00
  1.426460727228e-02 -6.341713553586e-03 0.000000000000e+00
  2.334717401649e-02 -2.833482075576e-02 0.000000000000e+00
  3.333885123127e-02 -4.338615828647e-02 0.000000000000e+00
  4.341954800456e-02 -4.596060611983e-02 0.000000000000e+00
  5.257762686057e-02 -3.353159987057e-02 0.000000000000e+00
  5.979957881483e-02 -7.388470717615e-03 0.000000000000e+00
  6.430484605416e-02 2.788883038411e-02 0.000000000000e+00
  6.574255413739e-02 6.592666126782e-02 0.000000000000e+00
  6.426587823014e-02 1.003531097721e-01 0.000000000000e+00
  6.044573628477e-02 1.262472262867e-01 0.000000000000e+00
  5.505750354241e-02 1.408585391828e-01 0.000000000000e+00
  4.883231975470e-02 1.435386922087e-01 0.000000000000e+00
  4.227467687392e-02 1.350857362683e-01 0.000000000000e+00
  3.560531941574e-02 1.168366391524e-01 0.000000000000e+00
  2.882006723799e-02 8.986103385139e-02 0.000000000000e+00
  2.180238123497e-02 5.454290309543e-02 0.000000000000e+00
  1.441915510861e-02 1.071183156005e-02 0.000000000000e+00
  6.563502139993e-03 -4.169045014830e-02 0.000000000000e+00
  -1.843774579579e-03 -1.016301880190e-01 0.000000000000e+00
  -1.085475901226e-02 -1.660893150343e-01 0.000000000000e+00
  -2.046576118053e-02 -2.297221087895e-01 0.000000000000e+00
  -3.056055109104e-02 -2.853978645227e-01 0.000000000000e+00
  -4.085786309184e-02 -3.256633480407e-01 0.000000000000e+00
  -5.090467634792e-02 -3.447652690073e-01 0.000000000000e+00
  -6.013906803280e-02 -3.405411460743e-01 0.000000000000e+00
  -6.801252902300e-02 -3.153894446932e-01 0.000000000000e+00
  -7.412958924538e-02 -2.757842443986e-01 0.000000000000e+00
  -7.834917515448e-02 -2.303691732586e-01 0.000000000000e+00
  -8.080548332014e-02 -1.873126082478e-01 0.000000000000e+00
  -8.184118916734e-02 -1.519855461144e-01 0.000000000000e+00
  -8.188520077042e-02 -1.258928989016e-01 0.000000000000e+00
  -8.133018360068e-02 -1.071900013303e-01 0.000000000000e+00
  -8.045980970803e-02 -9.236859479226e-02 0.000000000000e+00
  -7.944610238543e-02 -7.820030096561e-02 0.000000000000e+00
  -7.840016590554e-02 -6.302102515187e-02 0.000000000000e+00
  -7.743450949721e-02 -4.688925152529e-02 0.000000000000e+00
  -7.669417075940e-02 -3.078769528732e-02 0.000000000000e+00
  -7.633626561366e-02 -1.551793201890e-02 0.000000000000e+00
  -7.647062198634e-02 -1.014844703607e-03 0.000000000000e+00
  -7.709891640391e-02 1.354166867590e-02 0.000000000000e+00
  -7.809146658852e-02 2.899610188314e-02 0.000000000000e+00
  -7.921829473319e-02 4.546246237780e-02 0.000000000000e+00
  -8.021823687454e-02 6.215475880714e-02 0.000000000000e+00
  -8.086721229558e-02 7.801826080842e-02 0.000000000000e+00
  -8.100790369541e-02 9.282284627276e-02 0.000000000000e+00
  -8.052667769114e-02 1.080098283768e-01 0.000000000000e+00
  -7.929545878709e-02 1.266274412226e-01 0.000000000000e+00
  -7.711867166194e-02 1.521409519139e-01 0.000000000000e+00
  -7.372609244016e-02 1.865317107007e-01 0.000000000000e+00
  -6.883026897420e-02 2.285699694829e-01 0.000000000000e+00
  -6.223258208375e-02 2.731837397244e-01 0.000000000000e+00
  -5.393294911672e-02 3.123902756112e-01 0.000000000000e+00
  -4.419083626072e-02 3.375241326057e-01 0.000000000000e+00
  -3.350443153459e-02 3.418761685209e-01 0.000000000000e+00
  -2.251068241408e-02 3.226829702999e-01 0.000000000000e+00
  -1.184325118528e-02 2.817434327381e-01 0.000000000000e+00
  -2.002415701336e-03 2.245691148828e-01 0.000000000000e+00
  6.716194066083e-03 1.585587613641e-01 0.000000000000e+00
  1.421522460484e-02 9.097685268369e-02 0.000000000000e+00
  2.053034688630e-02 2.745339847065e-02 0.000000000000e+00
  2.575403418803e-02 -2.859548549422e-02 0.000000000000e+00
  2.999880347193e-02 -7.563574585293e-02 0.000000000000e+00
  3.341960273994e-02 -1.131214578772e-01 0.000000000000e+00
  3.626611896777e-02 -1.405445098368e-01 0.000000000000e+00
  3.890130160954e-02 -1.568747045020e-01 0.000000000000e+00
  4.173112967387e-02 -1.606194258375e-01 0.000000000000e+00
  4.504407091854e-02 -1.504635795638e-01 0.000000000000e+00
  4.882556429349e-02 -1.262289055232e-01 0.000000000000e+00
  5.264872435548e-02 -8.976899506373e-02 0.000000000000e+00
  5.572011891764e-02 -4.540734433531e-02 0.000000000000e+00
  5.708810202930e-02 3.690864819727e-04 0.000000000000e+00
  5.594079162041e-02 4.003839749740e-02 0.000000000000e+00
  5.187652424800e-02 6.678940547418e-02 0.000000000000e+00
  4.504390220535e-02 7.639459580290e-02 0.000000000000e+00
  3.610912267802e-02 6.854577327910e-02 0.000000000000e+00
  2.607914424267e-02 4.705140746320e-02 0.000000000000e+00
  1.605524533342e-02 1.866339886821e-02 0.000000000000e+00
  6.998480925743e-03 -9.119137623205e-03 0.000000000000e+00
  -4.342587766041e-04 -3.040804894274e-02 0.000000000000e+00
  -5.957928104501e-03 -4.246226011152e-02 0.000000000000e+00
  -9.633894115311e-03 -4.581662830411e-02 0.000000000000e+00
  -1.177477485302e-02 -4.313479933152e-02 0.000000000000e+00
  -1.281516848671e-02 -3.752262676278e-02 0.000000000000e+00
  -1.318741360149e-02 -3.118134408264e-02 0.000000000000e+00
  -1.323429450919e-02 -2.493026290998e-02 0.000000000000e+00
  -1.317380019902e-02 -1.856790124217e-02 0.000000000000e+00
  -1.311113635417e-02 -1.162448648393e-02 0.000000000000e+00
  -1.307851265438e-02 -3.978566948382e-03 0.000000000000e+00
  0.000000000000e+00 0.000000000000e+00 0.000000000000e+00
  0.000000000000e+00 0.000000000000e+00 0.000000000000e+00
  -1.729068739913e-02 3.653240089645e-03 0.000000000000e+00
  -1.716917883575e-02 1.064714351055e-02 0.000000000000e+00
  -1.693644197711e-02 1.693644197711e-02 0.000000000000e+00
  -1.657482456835e-02 2.264211938976e-02 0.000000000000e+00
  -1.597901745719e-02 2.822594027284e-02 0.000000000000e+00
  -1.490311219111e-02 3.387888610648e-02 0.000000000000e+00
  -1.294417409283e-02 3.880699808864e-02 0.000000000000e+00
  -9.580878305339e-03 4.093575139890e-02 0.000000000000e+00
  -4.265689384226e-03 3.743839158451e-02 0.000000000000e+00
  3.449847598552e-03 2.606573008943e-02 0.000000000000e+00
  1.378501894900e-02 6.721303005584e-03 0.000000000000e+00
  2.661929146048e-02 -1.757246012894e-02 0.000000000000e+00
  4.141899104919e-02 -4.098634051334e-02 0.000000000000e+00
  5.722093916846e-02 -5.652826386294e-02 0.000000000000e+00
  7.269999334890e-02 -5.837825149709e-02 0.000000000000e+00
  8.634329024533e-02 -4.391533024574e-02 0.000000000000e+00
  9.672257866526e-02 -1.460598071662e-02 0.000000000000e+00
  1.028031561681e-01 2.452049564098e-02 0.000000000000e+00
  1.041848309422e-01 6.647561315354e-02 0.000000000000e+00
  1.011732990922e-01 1.042923656437e-01 0.000000000000e+00
  9.464101432368e-02 1.326603971290e-01 0.000000000000e+00
  8.572815099360e-02 1.487464644130e-01 0.000000000000e+00
  7.550570396313e-02 1.520983977968e-01 0.000000000000e+00
  6.473215353024e-02 1.438572239939e-01 0.000000000000e+00
  5.377737728303e-02 1.256892851321e-01 0.000000000000e+00
  4.269823297742e-02 9.887278435502e-02 0.000000000000e+00
  3.138290513584e-02 6.386416643640e-02 0.000000000000e+00
  1.967237035414e-02 2.048432912719e-02 0.000000000000e+00
  7.413966939024e-03 -3.134889133159e-02 0.000000000000e+00
  -5.534454563401e-03 -9.061604861340e-02 0.000000000000e+00
  -1.929585254525e-02 -1.543310720246e-01 0.000000000000e+00
  -3.391952233588e-02 -2.172456798388e-01 0.000000000000e+00
  -4.928553893797e-02 -2.724134869579e-01 0.000000000000e+00
  -6.501742374394e-02 -3.126185287931e-01 0.000000000000e+00
  -8.046609963026e-02 -3.323145991019e-01 0.000000000000e+00
  -9.480270728232e-02 -3.294208166238e-01 0.000000000000e+00
  -1.072064616909e-01 -3.062325587126e-01 0.000000000000e+00
  -1.170826996215e-01 -2.689478321735e-01 0.000000000000e+00
  -1.242228019136e-01 -2.258458972008e-01 0.000000000000e+00
  -1.288370744818e-01 -1.847653034509e-01 0.000000000000e+00
  -1.314474262685e-01 -1.508867931074e-01 0.000000000000e+00
  -1.326909802056e-01 -1.257040861406e-01 0.000000000000e+00
  -1.331241608996e-01 -1.075006502765e-01 0.000000000000e+00
  -1.331090713955e-01 -9.294340889140e-02 0.000000000000e+00
  -1.328160415820e-01 -7.893222360059e-02 0.000000000000e+00
  -1.323153317085e-01 -6.383574843750e-02 0.000000000000e+00
  -1.316891265443e-01 -4.766638937751e-02 0.000000000000e+00
  -1.310924357456e-01 -3.134758657004e-02 0.000000000000e+00
  -1.307278718181e-01 -1.568050947783e-02 0.000000000000e+00
  -1.307537595783e-01 -6.920228834546e-04 0.000000000000e+00
  -1.311864026572e-01 1.427978445304e-02 0.000000000000e+00
  -1.318608353039e-01 2.992496889947e-02 0.000000000000e+00
  -1.324776487306e-01 4.627723676058e-02 0.000000000000e+00
  -1.327095509688e-01 6.257182851585e-02 0.000000000000e+00
  -1.323042046827e-01 7.784481986046e-02 0.000000000000e+00
  -1.311221901496e-01 9.195496366322e-02 0.000000000000e+00
  -1.290882326582e-01 1.063625270528e-01 0.000000000000e+00
  -1.260863972507e-01 1.240416878158e-01 0.000000000000e+00
  -1.218662664402e-01 1.483297870084e-01 0.000000000000e+00
  -1.160273845849e-01 1.811114142098e-01 0.000000000000e+00
  -1.081120391351e-01 2.211790968018e-01 0.000000000000e+00
  -9.777940188734e-02 2.636442880718e-01 0.000000000000e+00
  -8.498660675391e-02 3.008372990214e-01 0.000000000000e+00
  -7.009096261666e-02 3.244393521041e-01 0.000000000000e+00
  -5.381986748210e-02 3.280034490971e-01 0.000000000000e+00
  -3.711439294644e-02 3.088564660269e-01 0.000000000000e+00
  -2.090810326759e-02 2.686962160792e-01 0.000000000000e+00
  -5.927891055453e-03 2.127952838317e-01 0.000000000000e+00
  7.411181583762e-03 1.482749100010e-01 0.000000000000e+00
  1.899152643109e-02 8.218132865680e-02 0.000000000000e+00
  2.889093717261e-02 2.003438947262e-02 0.000000000000e+00
  3.726555621788e-02 -3.477478284410e-02 0.000000000000e+00
  4.429145796798e-02 -8.072711953747e-02 0.000000000000e+00
  5.019269946863e-02 -1.173521249615e-01 0.000000000000e+00
  5.531439142865e-02 -1.442820509405e-01 0.000000000000e+00
  6.015134330546e-02 -1.606092979170e-01 0.000000000000e+00
  6.525463190466e-02 -1.648179490860e-01 0.000000000000e+00
  7.101147168868e-02 -1.553348373440e-01 0.000000000000e+00
  7.738580770477e-02 -1.315134771340e-01 0.000000000000e+00
  8.375819696694e-02 -9.467997277700e-02 0.000000000000e+00
  8.897654450098e-02 -4.878610871825e-02 0.000000000000e+00
  9.163496401609e-02 -2.785517618597e-04 0.000000000000e+00
  9.048860034876e-02 4.297970981744e-02 0.000000000000e+00
  8.484793998111e-02 7.355302089420e-02 0.000000000000e+00
  7.480845198413e-02 8.650309042251e-02 0.000000000000e+00
  6.124662874329e-02 8.093388142767e-02 0.000000000000e+00
  4.560617007608e-02 6.033373641719e-02 0.000000000000e+00
  2.956285459903e-02 3.144828430053e-02 0.000000000000e+00
  1.467450808306e-02 2.041087868128e-03 0.000000000000e+00
  2.103333657435e-03 -2.156436030610e-02 0.000000000000e+00
  -7.536882857992e-03 -3.614206290484e-02 0.000000000000e+00
  -1.419215106836e-02 -4.180559128961e-02 0.000000000000e+00
  -1.825524529462e-02 -4.094186138206e-02 0.000000000000e+00
  -2.037448235444e-02 -3.655593401873e-02 0.000000000000e+00
  -2.124795962824e-02 -3.090231443811e-02 0.000000000000e+00
  -2.146355323378e-02 -2.494681804127e-02 0.000000000000e+00
  -2.142011271601e-02 -1.865528093882e-02 0.000000000000e+00
  -2.133020072348e-02 -1.168968262466e-02 0.000000000000e+00
  -2.127574095458e-02 -4.000454276343e-03 0.000000000000e+00
  0.000000000000e+00 0.000000000000e+00 0.000000000000e+00
  0.000000000000e+00 0.000000000000e+00 0.000000000000e+00
  -2.316365936605e-02 3.577215528489e-03 0.000000000000e+00
  -2.299007165407e-02 1.042807179634e-02 0.000000000000e+00
  -2.264211938976e-02 1.657482456835e-02 0.000000000000e+00
  -2.206232042484e-02 2.206232042484e-02 0.000000000000e+00
  -2.105201461188e-02 2.719962631364e-02 0.000000000000e+00
  -1.920413396389e-02 3.198141415161e-02 0.000000000000e+00
  -1.589993120235e-02 3.544132918370e-02 0.000000000000e+00
  -1.039574726610e-02 3.543394058010e-02 0.000000000000e+00
  -1.989698950643e-03 2.921896516674e-02 0.000000000000e+00
  9.776718205988e-03 1.480320236780e-02 0.000000000000e+00
  2.494192357104e-02 -7.516545988280e-03 0.000000000000e+00
  4.302042619358e-02 -3.424738626910e-02 0.000000000000e+00
  6.299324965920e-02 -5.908393742751e-02 0.000000000000e+00
  8.339251916157e-02 -7.463188457040e-02 0.000000000000e+00
  1.024728510428e-01 -7.483401685132e-02 0.000000000000e+00
  1.184586708431e-01 -5.708868158827e-02 0.000000000000e+00
  1.298395500521e-01 -2.319279700302e-02 0.000000000000e+00
  1.356532273440e-01 2.121305713271e-02 0.000000000000e+00
  1.356701929417e-01 6.838441128993e-02 0.000000000000e+00
  1.304041826528e-01 1.106611096463e-01 0.000000000000e+00
  1.209294039595e-01 1.422987165882e-01 0.000000000000e+00
  1.085641429864e-01 1.603862692570e-01 0.000000000000e+00