# vtk DataFile Version 3.0
Karman Output
ASCII
DATASET RECTILINEAR_GRID
DIMENSIONS 101 101 1
X_COORDINATES 101 float
   0.000000000000e+00   9.900990099010e-03   1.980198019802e-02   2.970297029703e-02   3.960396039604e-02   4.950495049505e-02   5.940594059406e-02   6.930693069307e-02   7.920792079208e-02   8.910891089109e-02   9.900990099010e-02   1.089108910891e-01   1.188118811881e-01   1.287128712871e-01   1.386138613861e-01   1.485148514851e-01   1.584158415842e-01   1.683168316832e-01   1.782178217822e-01   1.881188118812e-01   1.980198019802e-01   2.079207920792e-01   2.178217821782e-01   2.277227722772e-01   2.376237623762e-01   2.475247524752e-01   2.574257425743e-01   2.673267326733e-01   2.772277227723e-01   2.871287128713e-01   2.970297029703e-01   3.069306930693e-01   3.168316831683e-01   3.267326732673e-01   3.366336633663e-01   3.465346534653e-01   3.564356435644e-01   3.663366336634e-01   3.762376237624e-01   3.861386138614e-01   3.960396039604e-01   4.059405940594e-01   4.158415841584e-01   4.257425742574e-01   4.356435643564e-01   4.455445544554e-01   4.554455445545e-01   4.653465346535e-01   4.752475247525e-01   4.851485148515e-01   4.950495049505e-01   5.049504950495e-01   5.148514851485e-01   5.247524752475e-01   5.346534653465e-01   5.445544554455e-01   5.544554455446e-01   5.643564356436e-01   5.742574257426e-01   5.841584158416e-01   5.940594059406e-01   6.039603960396e-01   6.138613861386e-01   6.237623762376e-01   6.336633663366e-01   6.435643564356e-01   6.534653465347e-01   6.633663366337e-01   6.732673267327e-01   6.831683168317e-01   6.930693069307e-01   7.029702970297e-01   7.128712871287e-01   7.227722772277e-01   7.326732673267e-01   7.425742574257e-01   7.524752475248e-01   7.623762376238e-01   7.722772277228e-01   7.821782178218e-01   7.920792079208e-01   8.019801980198e-01   8.118811881188e-01   8.217821782178e-01   8.316831683168e-01   8.415841584158e-01   8.514851485149e-01   8.613861386139e-01   8.712871287129e-01   8.811881188119e-01   8.910891089109e-01   9.009900990099e-01   9.108910891089e-01   9.207920792079e-01   9.306930693069e-01   9.405940594059e-01   9.504950495050e-01   9.603960396040e-01   9.702970297030e-01   9.801980198020e-01   9.900990099010e-01
Y_COORDINATES 101 float
   0.000000000000e+00   9.900990099010e-03   1.980198019802e-02   2.970297029703e-02   3.960396039604e-02   4.950495049505e-02   5.940594059406e-02   6.930693069307e-02   7.920792079208e-02   8.910891089109e-02   9.900990099010e-02   1.089108910891e-01   1.188118811881e-01   1.287128712871e-01   1.386138613861e-01   1.485148514851e-01   1.584158415842e-01   1.683168316832e-01   1.782178217822e-01   1.881188118812e-01   1.980198019802e-01   2.079207920792e-01   2.178217821782e-01   2.277227722772e-01   2.376237623762e-01   2.475247524752e-01   2.574257425743e-01   2.673267326733e-01   2.772277227723e-01   2.871287128713e-01   2.970297029703e-01   3.069306930693e-01   3.168316831683e-01   3.267326732673e-01   3.366336633663e-01   3.465346534653e-01   3.564356435644e-01   3.663366336634e-01   3.762376237624e-01   3.861386138614e-01   3.960396039604e-01   4.059405940594e-01   4.158415841584e-01   4.257425742574e-01   4.356435643564e-01   4.455445544554e-01   4.554455445545e-01   4.653465346535e-01   4.752475247525e-01   4.851485148515e-01   4.950495049505e-01   5.049504950495e-01   5.148514851485e-01   5.247524752475e-01   5.346534653465e-01   5.445544554455e-01   5.544554455446e-01   5.643564356436e-01   5.742574257426e-01   5.841584158416e-01   5.940594059406e-01   6.039603960396e-01   6.138613861386e-01   6.237623762376e-01   6.336633663366e-01   6.435643564356e-01   6.534653465347e-01   6.633663366337e-01   6.732673267327e-01   6.831683168317e-01   6.930693069307e-01   7.029702970297e-01   7.128712871287e-01   7.227722772277e-01   7.326732673267e-01   7.425742574257e-01   7.524752475248e-01   7.623762376238e-01   7.722772277228e-01   7.821782178218e-01   7.920792079208e-01   8.019801980198e-01   8.118811881188e-01   8.217821782178e-01   8.316831683168e-01   8.415841584158e-01   8.514851485149e-01   8.613861386139e-01   8.712871287129e-01   8.811881188119e-01   8.910891089109e-01   9.009900990099e-01   9.108910891089e-01   9.207920792079e-01   9.306930693069e-01   9.405940594059e-01   9.504950495050e-01   9.603960396040e-01   9.702970297030e-01   9.801980198020e-01   9.900990099010e-01
Z_COORDINATES 1 float
  0.000000000000e+00
POINT_DATA 10201
VECTORS E_field float
  0.000000000000e+00 0.000000000000e+00 0.000000000000e+00
  0.000000000000e+00 0.000000000000e+00 0.000000000000e+00
  0.000000000000e+00 0.000000000000e+00 0.000000000000e+00
  0.000000000000e+00 0.000000000000e+00 0.000000000000e+00
  0.000000000000e+00 0.000000000000e+00 0.000000000000e+00
  0.000000000000e+00 0.000000000000e+00 0.000000000000e+00
  0.000000000000e+00 0.000000000000e+00 0.000000000000e+00
  0.000000000000e+00 0.000000000000e+00 0.000000000000e+00
  0.000000000000e+00 0.000000000000e+00 0.000000000000e+00
  0.000000000000e+00 0.000000000000e+00 0.000000000000e+00
  0.000000000000e+00 0.000000000000e+00 0.000000000000e+00
  0.000000000000e+00 0.000000000000e+00 0.000000000000e+00
  0.000000000000e+00 0.000000000000e+00 0.000000000000e+00
  0.000000000000e+00 0.000000000000e+00 0.000000000000e+00
  0.000000000000e+00 0.000000000000e+00 0.000000000000e+00
  0.000000000000e+00 0.000000000000e+00 0.000000000000e+00
  0.000000000000e+00 0.000000000000e+00 0.000000000000e+00
  0.000000000000e+00 0.000000000000e+00 0.000000000000e+00
  0.000000000000e+00 0.000000000000e+00 0.000000000000e+00
  0.000000000000e+00 0.000000000000e+00 0.000000000000e+00
  0.000000000000e+00 0.000000000000e+00 0.000000000000e+00
  0.000000000000e+00 0.000000000000e+00 0.000000000000e+00
  0.000000000000e+00 0.000000000000e+00 0.000000000000e+00
  0.000000000000e+00 0.000000000000e+00 0.000000000000e+00
  0.000000000000e+00 0.000000000000e+00 0.000000000000e+00
  0.000000000000e+00 0.000000000000e+00 0.000000000000e+00
  0.000000000000e+00 0.000000000000e+00 0.000000000000e+00
  0.000000000000e+00 0.000000000000e+00 0.000000000000e+00
  0.000000000000e+00 0.000000000000e+00 0.000000000000e+00
  0.000000000000e+00 0.000000000000e+00 0.000000000000e+00
  0.000000000000e+00 0.000000000000e+00 0.000000000000e+00
  0.000000000000e+00 0.000000000000e+00 0.000000000000e+00
  0.000000000000e+00 0.000000000000e+00 0.000000000000e+00
  0.000000000000e+00 0.000000000000e+00 0.000000000000e+00
  0.000000000000e+00 0.000000000000e+00 0.000000000000e+00
  0.000000000000e+00 0.000000000000e+00 0.000000000000e+00
  0.000000000000e+00 0.000000000000e+00 0.000000000000e+00
  0.000000000000e+00 0.000000000000e+00 0.000000000000e+00
  0.000000000000e+00 0.000000000000e+00 0.000000000000e+00
  0.000000000000e+00 0.000000000000e+00 0.000000000000e+00
  0.000000000000e+00 0.000000000000e+00 0.000000000000e+00
  0.000000000000e+00 0.000000000000e+00 0.000000000000e+00
  0.000000000000e+00 0.000000000000e+00 0.000000000000e+00
  0.000000000000e+00 0.000000000000e+00 0.000000000000e+00
  0.000000000000e+00 0.000000000000e+00 0.000000000000e+00
  0.000000000000e+00 0.000000000000e+00 0.000000000000e+00
  0.000000000000e+00 0.000000000000e+00 0.000000000000e+00
  0.000000000000e+00 0.000000000000e+00 0.000000000000e+00
  0.000000000000e+00 0.000000000000e+00 0.000000000000e+00
  0.000000000000e+00 0.000000000000e+00 0.000000000000e+00
  0.000000000000e+00 0.000000000000e+00 0.000000000000e+00
  0.000000000000e+00 0.000000000000e+00 0.000000000000e+00
  0.000000000000e+00 0.000000000000e+00 0.000000000000e+00
  0.000000000000e+00 0.000000000000e+00 0.000000000000e+00
  0.000000000000e+00 0.000000000000e+00 0.000000000000e+00
  0.000000000000e+00 0.000000000000e+00 0.000000000000e+00
  0.000000000000e+00 0.000000000000e+00 0.000000000000e+00
  0.000000000000e+00 0.000000000000e+00 0.000000000000e+00
  0.000000000000e+00 0.000000000000e+00 0.000000000000e+00
  0.000000000000e+00 0.000000000000e+00 0.000000000000e+00
  0.000000000000e+00 0.000000000000e+00 0.000000000000e+00
  0.000000000000e+00 0.000000000000e+00 0.000000000000e+00
  0.000000000000e+00 0.000000000000e+00 0.000000000000e+00
  0.000000000000e+00 0.000000000000e+00 0.000000000000e+00
  0.000000000000e+00 0.000000000000e+00 0.000000000000e+00
  0.000000000000e+00 0.000000000000e+00 0.000000000000e+00
  0.000000000000e+00 0.000000000000e+00 0.000000000000e+00
  0.000000000000e+00 0.000000000000e+00 0.000000000000e+00
  0.000000000000e+00 0.000000000000e+00 0.000000000000e+00
  0.000000000000e+00 0.000000000000e+00 0.000000000000e+00
  0.000000000000e+00 0.000000000000e+00 0.000000000000e+00
  0.000000000000e+00 0.000000000000e+00 0.000000000000e+00
  0.000000000000e+00 0.000000000000e+00 0.000000000000e+00
  0.000000000000e+00 0.000000000000e+00 0.000000000000e+00
  0.000000000000e+00 0.000000000000e+00 0.000000000000e+00
  0.000000000000e+00 0.000000000000e+00 0.000000000000e+00
  0.000000000000e+00 0.000000000000e+00 0.000000000000e+00
  0.000000000000e+00 0.000000000000e+00 0.000000000000e+00
  0.000000000000e+00 0.000000000000e+00 0.000000000000e+00
  0.000000000000e+00 0.000000000000e+00 0.000000000000e+00
  0.000000000000e+00 0.000000000000e+00 0.000000000000e+00
  0.000000000000e+00 0.000000000000e+00 0.000000000000e+00
  0.000000000000e+00 0.000000000000e+00 0.000000000000e+00
  0.000000000000e+00 0.000000000000e+00 0.000000000000e+00
  0.000000000000e+00 0.000000000000e+00 0.000000000000e+00
  0.000000000000e+00 0.000000000000e+00 0.000000000000e+00
  0.000000000000e+00 0.000000000000e+00 0.000000000000e+00
  0.000000000000e+00 0.000000000000e+00 0.000000000000e+00
  0.000000000000e+00 0.000000000000e+00 0.000000000000e+00
  0.000000000000e+00 0.000000000000e+00 0.000000000000e+00
  0.000000000000e+00 0.000000000000e+00 0.000000000000e+00
  0.000000000000e+00 0.000000000000e+00 0.000000000000e+00
  0.000000000000e+00 0.000000000000e+00 0.000000000000e+00
  0.000000000000e+00 0.000000000000e+00 0.000000000000e+00
  0.000000000000e+00 0.000000000000e+00 0.000000000000e+00
  0.000000000000e+00 0.000000000000e+00 0.000000000000e+00
  0.000000000000e+00 0.000000000000e+00 0.000000000000e+00
  0.000000000000e+00 0.000000000000e+00 0.000000000000e+00
  0.000000000000e+00 0.000000000000e+00 0.000000000000e+00
  0.000000000000e+00 0.000000000000e+00 0.000000000000e+00
  0.000000000000e+00 0.000000000000e+00 0.000000000000e+00
  0.000000000000e+00 0.000000000000e+00 0.000000000000e+00
  2.044481501339e-02 -2.044481501339e-02 0.000000000000e+00
  2.147250604564e-02 -6.240442265725e-02 0.000000000000e+00
  2.330783468435e-02 -1.070039940866e-01 0.000000000000e+00
  2.556586099609e-02 -1.544165306125e-01 0.000000000000e+00
  2.778662542033e-02 -2.033384169811e-01 0.000000000000e+00
  2.952820215761e-02 -2.516293975136e-01 0.000000000000e+00
  3.043467355120e-02 -2.971944426564e-01 0.000000000000e+00
  3.026603644979e-02 -3.384931966861e-01 0.000000000000e+00
  2.889594372261e-02 -3.743566535803e-01 0.000000000000e+00
  2.629569883551e-02 -4.033325715921e-01 0.000000000000e+00
  2.252311249900e-02 -4.231856735087e-01 0.000000000000e+00
  1.772396589922e-02 -4.311353739910e-01 0.000000000000e+00
  1.213931146897e-02 -4.249299369263e-01 0.000000000000e+00
  6.102888546156e-03 -4.042570805259e-01 0.000000000000e+00
  1.536630373410e-05 -3.716808873832e-01 0.000000000000e+00
  -5.705220713120e-03 -3.324787856286e-01 0.000000000000e+00
  -1.068272728892e-02 -2.933233078760e-01 0.000000000000e+00
  -1.463118400596e-02 -2.603789721530e-01 0.000000000000e+00
  -1.737821042276e-02 -2.377043574545e-01 0.000000000000e+00
  -1.886495319544e-02 -2.266730250937e-01 0.000000000000e+00
  -1.913620890501e-02 -2.265493391759e-01 0.000000000000e+00
  -1.833433958144e-02 -2.357174484592e-01 0.000000000000e+00
  -1.669896858216e-02 -2.527487461744e-01 0.000000000000e+00
  -1.456128519934e-02 -2.766846330442e-01 0.000000000000e+00
  -1.231796593977e-02 -3.064669893304e-01 0.000000000000e+00
  -1.037845674649e-02 -3.400140484347e-01 0.000000000000e+00
  -9.094574132577e-03 -3.736787585321e-01 0.000000000000e+00
  -8.693105066205e-03 -4.026122892710e-01 0.000000000000e+00
  -9.233516397016e-03 -4.220173559105e-01 0.000000000000e+00
  -1.060391348965e-02 -4.287247890149e-01 0.000000000000e+00
  -1.255437708260e-02 -4.222904049178e-01 0.000000000000e+00
  -1.475473769889e-02 -4.050442527492e-01 0.000000000000e+00
  -1.685854315077e-02 -3.810993374164e-01 0.000000000000e+00
  -1.855721255403e-02 -3.548853262557e-01 0.000000000000e+00
  -1.961542502362e-02 -3.299652865972e-01 0.000000000000e+00
  -1.988667311482e-02 -3.086171570837e-01 0.000000000000e+00
  -1.931356503419e-02 -2.921216712797e-01 0.000000000000e+00
  -1.791958395754e-02 -2.812583681484e-01 0.000000000000e+00
  -1.579773589414e-02 -2.764537350011e-01 0.000000000000e+00
  -1.309808678962e-02 -2.773773015197e-01 0.000000000000e+00
  -1.001288693043e-02 -2.822931079606e-01 0.000000000000e+00
  -6.757264193542e-03 -2.877703010940e-01 0.000000000000e+00
  -3.546093013805e-03 -2.891958143531e-01 0.000000000000e+00
  -5.715130066690e-04 -2.820066009566e-01 0.000000000000e+00
  2.012852961231e-03 -2.630534854237e-01 0.000000000000e+00
  4.097432831797e-03 -2.314037764461e-01 0.000000000000e+00
  5.613263895490e-03 -1.882502304361e-01 0.000000000000e+00
  6.524253603488e-03 -1.361302571074e-01 0.000000000000e+00
  6.819521861952e-03 -7.799094455205e-02 0.000000000000e+00
  6.507282176977e-03 -1.659264197643e-02 0.000000000000e+00
  5.609355291810e-03 4.556282683087e-02 0.000000000000e+00
  4.155839264160e-03 1.059345966677e-01 0.000000000000e+00
  2.181983847003e-03 1.616385466289e-01 0.000000000000e+00
  -2.690137964752e-04 2.095062417243e-01 0.000000000000e+00
  -3.135313927494e-03 2.466782618764e-01 0.000000000000e+00
  -6.320790796829e-03 2.715588932144e-01 0.000000000000e+00
  -9.682339651922e-03 2.846402112675e-01 0.000000000000e+00
  -1.302911516831e-02 2.886474351488e-01 0.000000000000e+00
  -1.613833999087e-02 2.877828497999e-01 0.000000000000e+00
  -1.878477402179e-02 2.863864050635e-01 0.000000000000e+00
  -2.077473920470e-02 2.877051049192e-01 0.000000000000e+00
  -2.197431547452e-02 2.933736967965e-01 0.000000000000e+00
  -2.232504426645e-02 3.037099268279e-01 0.000000000000e+00
  -2.184623705170e-02 3.183912618162e-01 0.000000000000e+00
  -2.062747671378e-02 3.368950835825e-01 0.000000000000e+00
  -1.881663893467e-02 3.583602096813e-01 0.000000000000e+00
  -1.660799471968e-02 3.810408421519e-01 0.000000000000e+00
  -1.423233506263e-02 4.019037267703e-01 0.000000000000e+00
  -1.194728438805e-02 4.169001672643e-01 0.000000000000e+00
  -1.002261964923e-02 4.220290353738e-01 0.000000000000e+00
  -8.715037024666e-03 4.147623585190e-01 0.000000000000e+00
  -8.231114413294e-03 3.950980929987e-01 0.000000000000e+00
  -8.684869218115e-03 3.656573677143e-01 0.000000000000e+00
  -1.006289310887e-02 3.307715505080e-01 0.000000000000e+00
  -1.221077759278e-02 2.950697654026e-01 0.000000000000e+00
  -1.484775192341e-02 2.623233428620e-01 0.000000000000e+00
  -1.760524054862e-02 2.350899939718e-01 0.000000000000e+00
  -2.007591444705e-02 2.151727226193e-01 0.000000000000e+00
  -2.185873161796e-02 2.043884229965e-01 0.000000000000e+00
  -2.259341160532e-02 2.049399189383e-01 0.000000000000e+00
  -2.198890928674e-02 2.189363684695e-01 0.000000000000e+00
  -1.985538723048e-02 2.471804431303e-01 0.000000000000e+00
  -1.614246839809e-02 2.878919061246e-01 0.000000000000e+00
  -1.097238446212e-02 3.362040371190e-01 0.000000000000e+00
  -4.647007949774e-03 3.849156753952e-01 0.000000000000e+00
  2.387037173798e-03 4.263055487186e-01 0.000000000000e+00
  9.611742320613e-03 4.542241410073e-01 0.000000000000e+00
  1.652528116105e-02 4.655223237632e-01 0.000000000000e+00
  2.271187110492e-02 4.602386911676e-01 0.000000000000e+00
  2.787330512453e-02 4.406317000580e-01 0.000000000000e+00
  3.182422833907e-02 4.097235294521e-01 0.000000000000e+00
  3.447244465211e-02 3.701848615040e-01 0.000000000000e+00
  3.580931560629e-02 3.240485287914e-01 0.000000000000e+00
  3.592205065671e-02 2.731301101927e-01 0.000000000000e+00
  3.501839950675e-02 2.195701193335e-01 0.000000000000e+00
  3.343859054632e-02 1.659025641480e-01 0.000000000000e+00
  3.162935083363e-02 1.144738083283e-01 0.000000000000e+00
  3.007116355749e-02 6.655795233222e-02 0.000000000000e+00
  2.917380281813e-02 2.177131783904e-02 0.000000000000e+00
  0.000000000000e+00 0.000000000000e+00 0.000000000000e+00
  0.000000000000e+00 0.000000000000e+00 0.000000000000e+00
  6.240442265725e-02 -2.147250604564e-02 0.000000000000e+00
  6.526704754460e-02 -6.526704754460e-02 0.000000000000e+00
  7.038744873035e-02 -1.110970990237e-01 0.000000000000e+00
  7.670644369810e-02 -1.589004469549e-01 0.000000000000e+00
  8.295479139326e-02 -2.073236127581e-01 0.000000000000e+00
  8.790454209027e-02 -2.543355291709e-01 0.000000000000e+00
  9.055111678845e-02 -2.980413570908e-01 0.000000000000e+00
  9.019319237735e-02 -3.371197207391e-01 0.000000000000e+00
  8.642955925443e-02 -3.705964036772e-01 0.000000000000e+00
  7.912479423251e-02 -3.971878115862e-01 0.000000000000e+00
  6.839309810365e-02 -4.148261510493e-01 0.000000000000e+00
  5.461697977956e-02 -4.209196315266e-01 0.000000000000e+00
  3.847655125393e-02 -4.134205964348e-01 0.000000000000e+00
  2.094208079728e-02 -3.921955276380e-01 0.000000000000e+00
  3.192653497705e-03 -3.599054907292e-01 0.000000000000e+00
  -1.353743830700e-02 -3.218035034611e-01 0.000000000000e+00
  -2.813976431324e-02 -2.844187574615e-01 0.000000000000e+00
  -3.977746595205e-02 -2.536973642116e-01 0.000000000000e+00
  -4.795393081736e-02 -2.334624741138e-01 0.000000000000e+00
  -5.250868854257e-02 -2.248734079365e-01 0.000000000000e+00
  -5.358168657459e-02 -2.270047025914e-01 0.000000000000e+00
  -5.158799431308e-02 -2.380576466288e-01 0.000000000000e+00
  -4.721169555917e-02 -2.564202177580e-01 0.000000000000e+00
  -4.138890207795e-02 -2.809736383246e-01 0.000000000000e+00
  -3.523695573847e-02 -3.105732496490e-01 0.000000000000e+00
  -2.991001783754e-02 -3.431742352103e-01 0.000000000000e+00
  -2.640388785033e-02 -3.753085843576e-01 0.000000000000e+00
  -2.536693298473e-02 -4.024208873774e-01 0.000000000000e+00
  -2.697956628361e-02 -4.200557131744e-01 0.000000000000e+00
  -3.094049255961e-02 -4.253551083824e-01 0.000000000000e+00
  -3.655849291962e-02 -4.180916215973e-01 0.000000000000e+00
  -4.291374972544e-02 -4.006874186474e-01 0.000000000000e+00
  -4.903701220341e-02 -3.772291035879e-01 0.000000000000e+00
  -5.406109588106e-02 -3.520328070024e-01 0.000000000000e+00
  -5.731959082421e-02 -3.285010984361e-01 0.000000000000e+00
  -5.839039959279e-02 -3.087392883820e-01 0.000000000000e+00
  -5.709767350991e-02 -2.938653741398e-01 0.000000000000e+00
  -5.349114908842e-02 -2.845151707781e-01 0.000000000000e+00
  -4.781759326882e-02 -2.809923362414e-01 0.000000000000e+00
  -4.048902680868e-02 -2.828669158246e-01 0.000000000000e+00
  -3.204315002993e-02 -2.883345702660e-01 0.000000000000e+00
  -2.308962616295e-02 -2.939379853552e-01 0.000000000000e+00
  -1.424347924479e-02 -2.950854481419e-01 0.000000000000e+00
  -6.058026291912e-03 -2.872770000695e-01 0.000000000000e+00
  1.025117438519e-03 -2.674505959421e-01 0.000000000000e+00
  6.697312113531e-03 -2.347634404008e-01 0.000000000000e+00
  1.077638599483e-02 -1.904854713533e-01 0.000000000000e+00
  1.318311823414e-02 -1.372127380699e-01 0.000000000000e+00
  1.391264879934e-02 -7.793326235744e-02 0.000000000000e+00
  1.300749325522e-02 -1.543292890365e-02 0.000000000000e+00
  1.053421604975e-02 4.777431786540e-02 0.000000000000e+00
  6.566487193004e-03 1.091443505107e-01 0.000000000000e+00
  1.181277714372e-03 1.657878576521e-01 0.000000000000e+00
  -5.524076116322e-03 2.145132821263e-01 0.000000000000e+00
  -1.339308420910e-02 2.524065296349e-01 0.000000000000e+00
  -2.216173107279e-02 2.777847491174e-01 0.000000000000e+00
  -3.142376162083e-02 2.910379346943e-01 0.000000000000e+00
  -4.063318290222e-02 2.948059084500e-01 0.000000000000e+00
  -4.915422717622e-02 2.932546455330e-01 0.000000000000e+00
  -5.634838406027e-02 2.907552001930e-01 0.000000000000e+00
  -6.167195423407e-02 2.906498451047e-01 0.000000000000e+00
  -6.475496498316e-02 2.947115435984e-01 0.000000000000e+00
  -6.544323898505e-02 3.034110827972e-01 0.000000000000e+00
  -6.380190990654e-02 3.165699695381e-01 0.000000000000e+00
  -6.009159284591e-02 3.337872984519e-01 0.000000000000e+00
  -5.473333003728e-02 3.542988942179e-01 0.000000000000e+00
  -4.827569456161e-02 3.764358779209e-01 0.000000000000e+00
  -4.136896932764e-02 3.972263061082e-01 0.000000000000e+00
  -3.473973400656e-02 4.126633019296e-01 0.000000000000e+00
  -2.914969465747e-02 4.187511966200e-01 0.000000000000e+00
  -2.532261079651e-02 4.129055307870e-01 0.000000000000e+00
  -2.383693679877e-02 3.949853241214e-01 0.000000000000e+00
  -2.500441513734e-02 3.673913697350e-01 0.000000000000e+00
  -2.877301705850e-02 3.341841742993e-01 0.000000000000e+00
  -3.469291583497e-02 2.997249248717e-01 0.000000000000e+00
  -4.196297039857e-02 2.675752122872e-01 0.000000000000e+00
  -4.954264233397e-02 2.401752851073e-01 0.000000000000e+00
  -5.628941949524e-02 2.193048825435e-01 0.000000000000e+00
  -6.108102140464e-02 2.068306821525e-01 0.000000000000e+00
  -6.290630714140e-02 2.050576255064e-01 0.000000000000e+00
  -6.094107668860e-02 2.162489291301e-01 0.000000000000e+00
  -5.463802223835e-02 2.414313059632e-01 0.000000000000e+00
  -4.383910343225e-02 2.791292056532e-01 0.000000000000e+00
  -2.887653697581e-02 3.248340871980e-01 0.000000000000e+00
  -1.060015362848e-02 3.716838654566e-01 0.000000000000e+00
  9.716502312014e-03 4.121866575932e-01 0.000000000000e+00
  3.058363667338e-02 4.402511926245e-01 0.000000000000e+00
  5.054805736882e-02 4.526173126101e-01 0.000000000000e+00
  6.839980697321e-02 4.491053627725e-01 0.000000000000e+00
  8.327126683458e-02 4.317321345722e-01 0.000000000000e+00
  9.463095365098e-02 4.033124849070e-01 0.000000000000e+00
  1.022293433449e-01 3.663493000421e-01 0.000000000000e+00
  1.060668675103e-01 3.227096951336e-01 0.000000000000e+00
  1.064193388171e-01 2.740037374932e-01 0.000000000000e+00
  1.038977235003e-01 2.221217584998e-01 0.000000000000e+00
  9.947505266735e-02 1.693534047750e-01 0.000000000000e+00
  9.441167319279e-02 1.178955868885e-01 0.000000000000e+00
  9.005372903595e-02 6.905230520500e-02 0.000000000000e+00
  8.754515750327e-02 2.268289723831e-02 0.000000000000e+00
  0.000000000000e+00 0.000000000000e+00 0.000000000000e+00
  0.000000000000e+00 0.000000000000e+00 0.000000000000e+00
  1.070039940866e-01 -2.330783468435e-02 0.000000000000e+00
  1.110970990237e-01 -7.038744873035e-02 0.000000000000e+00
  1.184443560248e-01 -1.184443560248e-01 0.000000000000e+00
  1.275725258910e-01 -1.670003547877e-01 0.000000000000e+00
  1.367034352671e-01 -2.146029619965e-01 0.000000000000e+00
  1.440880434751e-01 -2.593905388376e-01 0.000000000000e+00
  1.482440113221e-01 -2.997888899693e-01 0.000000000000e+00
  1.480600631086e-01 -3.348303152361e-01 0.000000000000e+00
  1.428028683135e-01 -3.638649812622e-01 0.000000000000e+00
  1.321017725466e-01 -3.859133732125e-01 0.000000000000e+00
  1.159735841046e-01 -3.992407048522e-01 0.000000000000e+00
  9.489550308292e-02 -4.016508783779e-01 0.000000000000e+00
  6.987449225695e-02 -3.915279102319e-01 0.000000000000e+00
  4.243435061894e-02 -3.691136017462e-01 0.000000000000e+00
  1.446733702386e-02 -3.372709757263e-01 0.000000000000e+00
  -1.203610204160e-02 -3.012044875938e-01 0.000000000000e+00
  -3.529758466043e-02 -2.671539647036e-01 0.000000000000e+00
  -5.399424517975e-02 -2.406277948113e-01 0.000000000000e+00
  -6.736661824125e-02 -2.249832055872e-01 0.000000000000e+00
  -7.519876073801e-02 -2.209657762411e-01 0.000000000000e+00
  -7.774008668567e-02 -2.272980103072e-01 0.000000000000e+00
  -7.564272323992e-02 -2.418553946203e-01 0.000000000000e+00
  -6.993709888887e-02 -2.627043928715e-01 0.000000000000e+00
  -6.200544567194e-02 -2.884439099093e-01 0.000000000000e+00
  -5.348719151523e-02 -3.177731785605e-01 0.000000000000e+00
  -4.607979398958e-02 -3.487086417253e-01 0.000000000000e+00
  -4.126111965929e-02 -3.780989821600e-01 0.000000000000e+00
  -4.001323956778e-02 -4.019153245321e-01 0.000000000000e+00
  -4.264063065310e-02 -4.163212516354e-01 0.000000000000e+00
  -4.874313681539e-02 -4.190261374828e-01 0.000000000000e+00
  -5.734547671817e-02 -4.102002522335e-01 0.000000000000e+00
  -6.713104322654e-02 -3.924379646956e-01 0.000000000000e+00
  -7.670221340932e-02 -3.697841248761e-01 0.000000000000e+00
  -8.479859784094e-02 -3.463573175993e-01 0.000000000000e+00
  -9.043691682151e-02 -3.252797739048e-01 0.000000000000e+00
  -9.297187752711e-02 -3.083548434201e-01 0.000000000000e+00
  -9.210102606644e-02 -2.964133966129e-01 0.000000000000e+00
  -8.784240650790e-02 -2.898322922323e-01 0.000000000000e+00
  -8.050469797012e-02 -2.886864790628e-01 0.000000000000e+00
  -7.065298969371e-02 -2.923530476190e-01 0.000000000000e+00
  -5.905974081806e-02 -2.988875639560e-01 0.000000000000e+00
  -4.662888316481e-02 -3.047693729575e-01 0.000000000000e+00
  -3.429334177147e-02 -3.054357485606e-01 0.000000000000e+00
  -2.290397662916e-02 -2.965015173946e-01 0.000000000000e+00
  -1.313782883293e-02 -2.750753697417e-01 0.000000000000e+00
  -5.448428316330e-03 -2.405002613602e-01 0.000000000000e+00
  -6.524090506292e-05 -1.942109112519e-01 0.000000000000e+00
  2.966150064887e-03 -1.389254209790e-01 0.000000000000e+00
  3.719674050812e-03 -7.770363366783e-02 0.000000000000e+00
  2.318307000151e-03 -1.335603477015e-02 0.000000000000e+00
  -1.124952444672e-03 5.161396048300e-02 0.000000000000e+00
  -6.537948770670e-03 1.146854330380e-01 0.000000000000e+00
  -1.387912380039e-02 1.729731594609e-01 0.000000000000e+00
  -2.308342507511e-02 2.232376351348e-01 0.000000000000e+00
  -3.397789741639e-02 2.624456566863e-01 0.000000000000e+00
  -4.619681762613e-02 2.887331887153e-01 0.000000000000e+00
  -5.913370879339e-02 3.022884163739e-01 0.000000000000e+00
  -7.195953075560e-02 3.055906695947e-01 0.000000000000e+00
  -8.371337166392e-02 3.027447691941e-01 0.000000000000e+00
  -9.344348812091e-02 2.981893495538e-01 0.000000000000e+00
  -1.003567113568e-01 2.954524888973e-01 0.000000000000e+00
  -1.039333724760e-01 2.965685714786e-01 0.000000000000e+00
  -1.039824427708e-01 3.022913990717e-01 0.000000000000e+00
  -1.006368243448e-01 3.127027056609e-01 0.000000000000e+00
  -9.430879884324e-02 3.276162197022e-01 0.000000000000e+00
  -8.563318527432e-02 3.464360965494e-01 0.000000000000e+00
  -7.542006583089e-02 3.676279206460e-01 0.000000000000e+00
  -6.462299491294e-02 3.883304672173e-01 0.000000000000e+00
  -5.430826290245e-02 4.046151734814e-01 0.000000000000e+00
  -4.559624037284e-02 4.124972631856e-01 0.000000000000e+00
  -3.954900100027e-02 4.092851409859e-01 0.000000000000e+00
  -3.700382249167e-02 3.945748614152e-01 0.000000000000e+00
  -3.838905241517e-02 3.703545407028e-01 0.000000000000e+00
  -4.358464680674e-02 3.401851996440e-01 0.000000000000e+00
  -5.188473485100e-02 3.079438863476e-01 0.000000000000e+00
  -6.208183919634e-02 2.768234097201e-01 0.000000000000e+00
  -7.264131308127e-02 2.490662334946e-01 0.000000000000e+00
  -8.190061159126e-02 2.264200098274e-01 0.000000000000e+00
  -8.823385553136e-02 2.108404007181e-01 0.000000000000e+00
  -9.016557866996e-02 2.048049158162e-01 0.000000000000e+00
  -8.646813296078e-02 2.108389626583e-01 0.000000000000e+00
  -7.629388468837e-02 2.303639697123e-01 0.000000000000e+00
  -5.935588117543e-02 2.624596195850e-01 0.000000000000e+00
  -3.610165129354e-02 3.032868769278e-01 0.000000000000e+00
  -7.778534701703e-03 3.466315757876e-01 0.000000000000e+00
  2.368983978527e-02 3.854539168347e-01 0.000000000000e+00
  5.601137979667e-02 4.137952590102e-01 0.000000000000e+00
  8.691815639375e-02 4.282020489319e-01 0.000000000000e+00
  1.145033051675e-01 4.280837280727e-01 0.000000000000e+00
  1.374012382543e-01 4.149843763239e-01 0.000000000000e+00
  1.548022415057e-01 3.912995530875e-01 0.000000000000e+00
  1.663769068838e-01 3.591891767897e-01 0.000000000000e+00
  1.722119512589e-01 3.201972498455e-01 0.000000000000e+00
  1.728160076861e-01 2.755596550473e-01 0.000000000000e+00
  1.691738237719e-01 2.267296401767e-01 0.000000000000e+00
  1.627626573111e-01 1.755793603919e-01 0.000000000000e+00
  1.554371718812e-01 1.240584961762e-01 0.000000000000e+00
  1.491455436949e-01 7.353896826050e-02 0.000000000000e+00
  1.455288707159e-01 2.432147869441e-02 0.000000000000e+00
  0.000000000000e+00 0.000000000000e+00 0.000000000000e+00
  0.000000000000e+00 0.000000000000e+00 0.000000000000e+00
  1.544165306125e-01 -2.556586099609e-02 0.000000000000e+00
  1.589004469549e-01 -7.670644369810e-02 0.000000000000e+00
  1.670003547877e-01 -1.275725258910e-01 0.000000000000e+00
  1.771822224533e-01 -1.771822224533e-01 0.000000000000e+00
  1.875652313456e-01 -2.239350125993e-01 0.000000000000e+00
  1.962364674385e-01 -2.661143325358e-01 0.000000000000e+00
  2.014669187594e-01 -3.024515154389e-01 0.000000000000e+00
  2.018092451487e-01 -3.323260679424e-01 0.000000000000e+00
  1.961320958353e-01 -3.554348844474e-01 0.000000000000e+00
  1.836744546969e-01 -3.711847331219e-01 0.000000000000e+00
  1.641702176426e-01 -3.783369194464e-01 0.000000000000e+00
  1.380197633780e-01 -3.753261284973e-01 0.000000000000e+00
  1.064179618183e-01 -3.612298477268e-01 0.000000000000e+00
  7.133104365449e-02 -3.368846044495e-01 0.000000000000e+00
  3.526514148205e-02 -3.054670572555e-01 0.000000000000e+00
  8.651091052406e-04 -2.721049346223e-01 0.000000000000e+00
  -2.952973684098e-02 -2.425971891101e-01 0.000000000000e+00
  -5.422138502710e-02 -2.217962616994e-01 0.000000000000e+00
  -7.228711790163e-02 -2.123766327631e-01 0.000000000000e+00
  -8.352532035962e-02 -2.145020041105e-01 0.000000000000e+00
  -8.831267268361e-02 -2.264331041661e-01 0.000000000000e+00