# vtk DataFile Version 3.0
Karman Output
ASCII
DATASET RECTILINEAR_GRID
DIMENSIONS 101 101 1
X_COORDINATES 101 float
   0.000000000000e+00   9.900990099010e-03   1.980198019802e-02   2.970297029703e-02   3.960396039604e-02   4.950495049505e-02   5.940594059406e-02   6.930693069307e-02   7.920792079208e-02   8.910891089109e-02   9.900990099010e-02   1.089108910891e-01   1.188118811881e-01   1.287128712871e-01   1.386138613861e-01   1.485148514851e-01   1.584158415842e-01   1.683168316832e-01   1.782178217822e-01   1.881188118812e-01   1.980198019802e-01   2.079207920792e-01   2.178217821782e-01   2.277227722772e-01   2.376237623762e-01   2.475247524752e-01   2.574257425743e-01   2.673267326733e-01   2.772277227723e-01   2.871287128713e-01   2.970297029703e-01   3.069306930693e-01   3.168316831683e-01   3.267326732673e-01   3.366336633663e-01   3.465346534653e-01   3.564356435644e-01   3.663366336634e-01   3.762376237624e-01   3.861386138614e-01   3.960396039604e-01   4.059405940594e-01   4.158415841584e-01   4.257425742574e-01   4.356435643564e-01   4.455445544554e-01   4.554455445545e-01   4.653465346535e-01   4.752475247525e-01   4.851485148515e-01   4.950495049505e-01   5.049504950495e-01   5.148514851485e-01   5.247524752475e-01   5.346534653465e-01   5.445544554455e-01   5.544554455446e-01   5.643564356436e-01   5.742574257426e-01   5.841584158416e-01   5.940594059406e-01   6.039603960396e-01   6.138613861386e-01   6.237623762376e-01   6.336633663366e-01   6.435643564356e-01   6.534653465347e-01   6.633663366337e-01   6.732673267327e-01   6.831683168317e-01   6.930693069307e-01   7.029702970297e-01   7.128712871287e-01   7.227722772277e-01   7.326732673267e-01   7.425742574257e-01   7.524752475248e-01   7.623762376238e-01   7.722772277228e-01   7.821782178218e-01   7.920792079208e-01   8.019801980198e-01   8.118811881188e-01   8.217821782178e-01   8.316831683168e-01   8.415841584158e-01   8.514851485149e-01   8.613861386139e-01   8.712871287129e-01   8.811881188119e-01   8.910891089109e-01   9.009900990099e-01   9.108910891089e-01   9.207920792079e-01   9.306930693069e-01   9.405940594059e-01   9.504950495050e-01   9.603960396040e-01   9.702970297030e-01   9.801980198020e-01   9.900990099010e-01
Y_COORDINATES 101 float
   0.000000000000e+00   9.900990099010e-03   1.980198019802e-02   2.970297029703e-02   3.960396039604e-02   4.950495049505e-02   5.940594059406e-02   6.930693069307e-02   7.920792079208e-02   8.910891089109e-02   9.900990099010e-02   1.089108910891e-01   1.188118811881e-01   1.287128712871e-01   1.386138613861e-01   1.485148514851e-01   1.584158415842e-01   1.683168316832e-01   1.782178217822e-01   1.881188118812e-01   1.980198019802e-01   2.079207920792e-01   2.178217821782e-01   2.277227722772e-01   2.376237623762e-01   2.475247524752e-01   2.574257425743e-01   2.673267326733e-01   2.772277227723e-01   2.871287128713e-01   2.970297029703e-01   3.069306930693e-01   3.168316831683e-01   3.267326732673e-01   3.366336633663e-01   3.465346534653e-01   3.564356435644e-01   3.663366336634e-01   3.762376237624e-01   3.861386138614e-01   3.960396039604e-01   4.059405940594e-01   4.158415841584e-01   4.257425742574e-01   4.356435643564e-01   4.455445544554e-01   4.554455445545e-01   4.653465346535e-01   4.752475247525e-01   4.851485148515e-01   4.950495049505e-01   5.049504950495e-01   5.148514851485e-01   5.247524752475e-01   5.346534653465e-01   5.445544554455e-01   5.544554455446e-01   5.643564356436e-01   5.742574257426e-01   5.841584158416e-01   5.940594059406e-01   6.039603960396e-01   6.138613861386e-01   6.237623762376e-01   6.336633663366e-01   6.435643564356e-01   6.534653465347e-01   6.633663366337e-01   6.732673267327e-01   6.831683168317e-01   6.930693069307e-01   7.029702970297e-01   7.128712871287e-01   7.227722772277e-01   7.326732673267e-01   7.425742574257e-01   7.524752475248e-01   7.623762376238e-01   7.722772277228e-01   7.821782178218e-01   7.920792079208e-01   8.019801980198e-01   8.118811881188e-01   8.217821782178e-01   8.316831683168e-01   8.415841584158e-01   8.514851485149e-01   8.613861386139e-01   8.712871287129e-01   8.811881188119e-01   8.910891089109e-01   9.009900990099e-01   9.108910891089e-01   9.207920792079e-01   9.306930693069e-01   9.405940594059e-01   9.504950495050e-01   9.603960396040e-01   9.702970297030e-01   9.801980198020e-01   9.900990099010e-01
Z_COORDINATES 1 float
  0.000000000000e+00
POINT_DATA 10201
VECTORS E_field float
  0.000000000000e+00 0.000000000000e+00 0.000000000000e+00
  0.000000000000e+00 0.000000000000e+00 0.000000000000e+00
  0.000000000000e+00 0.000000000000e+00 0.000000000000e+00
  0.000000000000e+00 0.000000000000e+00 0.000000000000e+00
  0.000000000000e+00 0.000000000000e+00 0.000000000000e+00
  0.000000000000e+00 0.000000000000e+00 0.000000000000e+00
  0.000000000000e+00 0.000000000000e+00 0.000000000000e+00
  0.000000000000e+00 0.000000000000e+00 0.000000000000e+00
  0.000000000000e+00 0.000000000000e+00 0.000000000000e+00
  0.000000000000e+00 0.000000000000e+00 0.000000000000e+00
  0.000000000000e+00 0.000000000000e+00 0.000000000000e+00
  0.000000000000e+00 0.000000000000e+00 0.000000000000e+00
  0.000000000000e+00 0.000000000000e+00 0.000000000000e+00
  0.000000000000e+00 0.000000000000e+00 0.000000000000e+00
  0.000000000000e+00 0.000000000000e+00 0.000000000000e+00
  0.000000000000e+00 0.000000000000e+00 0.000000000000e+00
  0.000000000000e+00 0.000000000000e+00 0.000000000000e+00
  0.000000000000e+00 0.000000000000e+00 0.000000000000e+00
  0.000000000000e+00 0.000000000000e+00 0.000000000000e+00
  0.000000000000e+00 0.000000000000e+00 0.000000000000e+00
  0.000000000000e+00 0.000000000000e+00 0.000000000000e+00
  0.000000000000e+00 0.000000000000e+00 0.000000000000e+00
  0.000000000000e+00 0.000000000000e+00 0.000000000000e+00
  0.000000000000e+00 0.000000000000e+00 0.000000000000e+00
  0.000000000000e+00 0.000000000000e+00 0.000000000000e+00
  0.000000000000e+00 0.000000000000e+00 0.000000000000e+00
  0.000000000000e+00 0.000000000000e+00 0.000000000000e+00
  0.000000000000e+00 0.000000000000e+00 0.000000000000e+00
  0.000000000000e+00 0.000000000000e+00 0.000000000000e+00
  0.000000000000e+00 0.000000000000e+00 0.000000000000e+00
  0.000000000000e+00 0.000000000000e+00 0.000000000000e+00
  0.000000000000e+00 0.000000000000e+00 0.000000000000e+00
  0.000000000000e+00 0.000000000000e+00 0.000000000000e+00
  0.000000000000e+00 0.000000000000e+00 0.000000000000e+00
  0.000000000000e+00 0.000000000000e+00 0.000000000000e+00
  0.000000000000e+00 0.000000000000e+00 0.000000000000e+00
  0.000000000000e+00 0.000000000000e+00 0.000000000000e+00
  0.000000000000e+00 0.000000000000e+00 0.000000000000e+00
  0.000000000000e+00 0.000000000000e+00 0.000000000000e+00
  0.000000000000e+00 0.000000000000e+00 0.000000000000e+00
  0.000000000000e+00 0.000000000000e+00 0.000000000000e+00
  0.000000000000e+00 0.000000000000e+00 0.000000000000e+00
  0.000000000000e+00 0.000000000000e+00 0.000000000000e+00
  0.000000000000e+00 0.000000000000e+00 0.000000000000e+00
  0.000000000000e+00 0.000000000000e+00 0.000000000000e+00
  0.000000000000e+00 0.000000000000e+00 0.000000000000e+00
  0.000000000000e+00 0.000000000000e+00 0.000000000000e+00
  0.000000000000e+00 0.000000000000e+00 0.000000000000e+00
  0.000000000000e+00 0.000000000000e+00 0.000000000000e+00
  0.000000000000e+00 0.000000000000e+00 0.000000000000e+00
  0.000000000000e+00 0.000000000000e+00 0.000000000000e+00
  0.000000000000e+00 0.000000000000e+00 0.000000000000e+00
  0.000000000000e+00 0.000000000000e+00 0.000000000000e+00
  0.000000000000e+00 0.000000000000e+00 0.000000000000e+00
  0.000000000000e+00 0.000000000000e+00 0.000000000000e+00
  0.000000000000e+00 0.000000000000e+00 0.000000000000e+00
  0.000000000000e+00 0.000000000000e+00 0.000000000000e+00
  0.000000000000e+00 0.000000000000e+00 0.000000000000e+00
  0.000000000000e+00 0.000000000000e+00 0.000000000000e+00
  0.000000000000e+00 0.000000000000e+00 0.000000000000e+00
  0.000000000000e+00 0.000000000000e+00 0.000000000000e+00
  0.000000000000e+00 0.000000000000e+00 0.000000000000e+00
  0.000000000000e+00 0.000000000000e+00 0.000000000000e+00
  0.000000000000e+00 0.000000000000e+00 0.000000000000e+00
  0.000000000000e+00 0.000000000000e+00 0.000000000000e+00
  0.000000000000e+00 0.000000000000e+00 0.000000000000e+00
  0.000000000000e+00 0.000000000000e+00 0.000000000000e+00
  0.000000000000e+00 0.000000000000e+00 0.000000000000e+00
  0.000000000000e+00 0.000000000000e+00 0.000000000000e+00
  0.000000000000e+00 0.000000000000e+00 0.000000000000e+00
  0.000000000000e+00 0.000000000000e+00 0.000000000000e+00
  0.000000000000e+00 0.000000000000e+00 0.000000000000e+00
  0.000000000000e+00 0.000000000000e+00 0.000000000000e+00
  0.000000000000e+00 0.000000000000e+00 0.000000000000e+00
  0.000000000000e+00 0.000000000000e+00 0.000000000000e+00
  0.000000000000e+00 0.000000000000e+00 0.000000000000e+00
  0.000000000000e+00 0.000000000000e+00 0.000000000000e+00
  0.000000000000e+00 0.000000000000e+00 0.000000000000e+00
  0.000000000000e+00 0.000000000000e+00 0.000000000000e+00
  0.000000000000e+00 0.000000000000e+00 0.000000000000e+00
  0.000000000000e+00 0.000000000000e+00 0.000000000000e+00
  0.000000000000e+00 0.000000000000e+00 0.000000000000e+00
  0.000000000000e+00 0.000000000000e+00 0.000000000000e+00
  0.000000000000e+00 0.000000000000e+00 0.000000000000e+00
  0.000000000000e+00 0.000000000000e+00 0.000000000000e+00
  0.000000000000e+00 0.000000000000e+00 0.000000000000e+00
  0.000000000000e+00 0.000000000000e+00 0.000000000000e+00
  0.000000000000e+00 0.000000000000e+00 0.000000000000e+00
  0.000000000000e+00 0.000000000000e+00 0.000000000000e+00
  0.000000000000e+00 0.000000000000e+00 0.000000000000e+00
  0.000000000000e+00 0.000000000000e+00 0.000000000000e+00
  0.000000000000e+00 0.000000000000e+00 0.000000000000e+00
  0.000000000000e+00 0.000000000000e+00 0.000000000000e+00
  0.000000000000e+00 0.000000000000e+00 0.000000000000e+00
  0.000000000000e+00 0.000000000000e+00 0.000000000000e+00
  0.000000000000e+00 0.000000000000e+00 0.000000000000e+00
  0.000000000000e+00 0.000000000000e+00 0.000000000000e+00
  0.000000000000e+00 0.000000000000e+00 0.000000000000e+00
  0.000000000000e+00 0.000000000000e+00 0.000000000000e+00
  0.000000000000e+00 0.000000000000e+00 0.000000000000e+00
  0.000000000000e+00 0.000000000000e+00 0.000000000000e+00
  0.000000000000e+00 0.000000000000e+00 0.000000000000e+00
  -2.766120803694e-02 2.766120803694e-02 0.000000000000e+00
  -2.773846980895e-02 8.338312772233e-02 0.000000000000e+00
  -2.771831846434e-02 1.393821007477e-01 0.000000000000e+00
  -2.730519895726e-02 1.932805781633e-01 0.000000000000e+00
  -2.616925929338e-02 2.403116587809e-01 0.000000000000e+00
  -2.403553480020e-02 2.743448018692e-01 0.000000000000e+00
  -2.075152291682e-02 2.894417883024e-01 0.000000000000e+00
  -1.632334640972e-02 2.812249722827e-01 0.000000000000e+00
  -1.092305105061e-02 2.476754581720e-01 0.000000000000e+00
  -4.873952437446e-03 1.893706162705e-01 0.000000000000e+00
  1.380862556186e-03 1.093345668994e-01 0.000000000000e+00
  7.324222334826e-03 1.262965548554e-02 0.000000000000e+00
  1.242208098938e-02 -9.423363150471e-02 0.000000000000e+00
  1.618838264181e-02 -2.039296029063e-01 0.000000000000e+00
  1.825333994809e-02 -3.087821514603e-01 0.000000000000e+00
  1.843020537415e-02 -4.009485819915e-01 0.000000000000e+00
  1.677132279760e-02 -4.725025234838e-01 0.000000000000e+00
  1.359624096727e-02 -5.158690293922e-01 0.000000000000e+00
  9.469371155513e-03 -5.250291040999e-01 0.000000000000e+00
  5.111341906840e-03 -4.974623307402e-01 0.000000000000e+00
  1.250389645001e-03 -4.361458041825e-01 0.000000000000e+00
  -1.550099779835e-03 -3.504951433976e-01 0.000000000000e+00
  -3.030908823931e-03 -2.552846874749e-01 0.000000000000e+00
  -3.289107022073e-03 -1.673782662379e-01 0.000000000000e+00
  -2.718746742262e-03 -1.012010359399e-01 0.000000000000e+00
  -1.860622865359e-03 -6.469198906684e-02 0.000000000000e+00
  -1.219710106166e-03 -5.747278885765e-02 0.000000000000e+00
  -1.120965673030e-03 -7.204457323574e-02 0.000000000000e+00
  -1.653628474115e-03 -9.741646981220e-02 0.000000000000e+00
  -2.711465735086e-03 -1.234360692881e-01 0.000000000000e+00
  -4.093768558509e-03 -1.438573674560e-01 0.000000000000e+00
  -5.610634993270e-03 -1.569516864328e-01 0.000000000000e+00
  -7.144742061620e-03 -1.637822923016e-01 0.000000000000e+00
  -8.652176310776e-03 -1.654015383385e-01 0.000000000000e+00
  -1.011833634718e-02 -1.606282641078e-01 0.000000000000e+00
  -1.150414309706e-02 -1.455962395579e-01 0.000000000000e+00
  -1.271593064653e-02 -1.152492005961e-01 0.000000000000e+00
  -1.361448581323e-02 -6.594992794209e-02 0.000000000000e+00
  -1.405650094833e-02 2.128961335386e-03 0.000000000000e+00
  -1.394644401599e-02 8.395594886202e-02 0.000000000000e+00
  -1.327427976445e-02 1.703275119947e-01 0.000000000000e+00
  -1.212354474726e-02 2.498829657903e-01 0.000000000000e+00
  -1.064892329794e-02 3.115845746613e-01 0.000000000000e+00
  -9.035158029455e-03 3.468349680042e-01 0.000000000000e+00
  -7.454563301845e-03 3.507577530101e-01 0.000000000000e+00
  -6.037692891024e-03 3.225535029765e-01 0.000000000000e+00
  -4.863892112169e-03 2.650917455049e-01 0.000000000000e+00
  -3.970057261100e-03 1.840186666059e-01 0.000000000000e+00
  -3.370273865306e-03 8.671423248005e-02 0.000000000000e+00
  -3.077122108663e-03 -1.858651359413e-02 0.000000000000e+00
  -3.116551048761e-03 -1.233396817931e-01 0.000000000000e+00
  -3.531027533000e-03 -2.189851098540e-01 0.000000000000e+00
  -4.369217562432e-03 -2.972603316695e-01 0.000000000000e+00
  -5.664337121485e-03 -3.508036358284e-01 0.000000000000e+00
  -7.407224997506e-03 -3.741037795538e-01 0.000000000000e+00
  -9.523395858076e-03 -3.645961716197e-01 0.000000000000e+00
  -1.186433855392e-02 -3.235561743880e-01 0.000000000000e+00
  -1.422043634769e-02 -2.564328964850e-01 0.000000000000e+00
  -1.635562104421e-02 -1.723501526597e-01 0.000000000000e+00
  -1.805433788522e-02 -8.265974345881e-02 0.000000000000e+00
  -1.916412783953e-02 1.290881799858e-03 0.000000000000e+00
  -1.961680442752e-02 7.063474310661e-02 0.000000000000e+00
  -1.941949501930e-02 1.208585584183e-01 0.000000000000e+00
  -1.862077201140e-02 1.522616450146e-01 0.000000000000e+00
  -1.727025721296e-02 1.686933438514e-01 0.000000000000e+00
  -1.539557189223e-02 1.750608676365e-01 0.000000000000e+00
  -1.301420569235e-02 1.747736026561e-01 0.000000000000e+00
  -1.018053170935e-02 1.684256767255e-01 0.000000000000e+00
  -7.046218023078e-03 1.544688742136e-01 0.000000000000e+00
  -3.896606467375e-03 1.316138777563e-01 0.000000000000e+00
  -1.127351738202e-03 1.017131881858e-01 0.000000000000e+00
  8.509513970720e-04 7.145730494107e-02 0.000000000000e+00
  1.755253758478e-03 5.165448828817e-02 0.000000000000e+00
  1.562651676594e-03 5.402527441320e-02 0.000000000000e+00
  5.688320262518e-04 8.675764246326e-02 0.000000000000e+00
  -6.664240995929e-04 1.508148555934e-01 0.000000000000e+00
  -1.477663663586e-03 2.387169007099e-01 0.000000000000e+00
  -1.300689820430e-03 3.363559115871e-01 0.000000000000e+00
  1.490286925324e-04 4.269999150807e-01 0.000000000000e+00
  2.790301543730e-03 4.957461503666e-01 0.000000000000e+00
  6.206407240058e-03 5.327185796308e-01 0.000000000000e+00
  9.769227492085e-03 5.341287498235e-01 0.000000000000e+00
  1.280402586386e-02 5.014009767654e-01 0.000000000000e+00
  1.473738701236e-02 4.393212938523e-01 0.000000000000e+00
  1.519052303297e-02 3.542911563252e-01 0.000000000000e+00
  1.400962899395e-02 2.533242780893e-01 0.000000000000e+00
  1.124824537163e-02 1.437788956456e-01 0.000000000000e+00
  7.124986307176e-03 3.337575226842e-02 0.000000000000e+00
  1.975307676776e-03 -6.997877994207e-02 0.000000000000e+00
  -3.793822838440e-03 -1.587600257533e-01 0.000000000000e+00
  -9.745428412130e-03 -2.266579659451e-01 0.000000000000e+00
  -1.545297019908e-02 -2.694156549936e-01 0.000000000000e+00
  -2.054258674298e-02 -2.854602066845e-01 0.000000000000e+00
  -2.473685351790e-02 -2.761832890975e-01 0.000000000000e+00
  -2.789353686141e-02 -2.457203731542e-01 0.000000000000e+00
  -3.002579427392e-02 -2.000844429166e-01 0.000000000000e+00
  -3.128818003831e-02 -1.457019657522e-01 0.000000000000e+00
  -3.192101450823e-02 -8.777944013236e-02 0.000000000000e+00
  -3.216338778637e-02 -2.922954819466e-02 0.000000000000e+00
  0.000000000000e+00 0.000000000000e+00 0.000000000000e+00
  0.000000000000e+00 0.000000000000e+00 0.000000000000e+00
  -8.338312772233e-02 2.773846980895e-02 0.000000000000e+00
  -8.343532493175e-02 8.343532493175e-02 0.000000000000e+00
  -8.305355054578e-02 1.389279778077e-01 0.000000000000e+00
  -8.141777526356e-02 1.916858063140e-01 0.000000000000e+00
  -7.761823929696e-02 2.369709549997e-01 0.000000000000e+00
  -7.090500183003e-02 2.688385436903e-01 0.000000000000e+00
  -6.087475350464e-02 2.816337862726e-01 0.000000000000e+00
  -4.756914588650e-02 2.712991901873e-01 0.000000000000e+00
  -3.149442756731e-02 2.361262265891e-01 0.000000000000e+00
  -1.358338483660e-02 1.769597065096e-01 0.000000000000e+00
  4.886963436129e-03 9.702031339399e-02 0.000000000000e+00
  2.241776042727e-02 1.469752221156e-03 0.000000000000e+00
  3.744754616169e-02 -1.032013726293e-01 0.000000000000e+00
  4.854049209360e-02 -2.098211093660e-01 0.000000000000e+00
  5.459181830225e-02 -3.110069285155e-01 0.000000000000e+00
  5.503318318052e-02 -3.993420352406e-01 0.000000000000e+00
  5.000627254780e-02 -4.674232770254e-01 0.000000000000e+00
  4.045001736576e-02 -5.082169388382e-01 0.000000000000e+00
  2.803424769229e-02 -5.161385551686e-01 0.000000000000e+00
  1.489538509328e-02 -4.888559878238e-01 0.000000000000e+00
  3.196283769767e-03 -4.291920935135e-01 0.000000000000e+00
  -5.381473580488e-03 -3.460706072915e-01 0.000000000000e+00
  -1.004597639679e-02 -2.535639117206e-01 0.000000000000e+00
  -1.104804170742e-02 -1.678387784834e-01 0.000000000000e+00
  -9.510549219038e-03 -1.028483764626e-01 0.000000000000e+00
  -6.994808727333e-03 -6.641851291275e-02 0.000000000000e+00
  -4.973664802193e-03 -5.840832169607e-02 0.000000000000e+00
  -4.414584372735e-03 -7.176686525991e-02 0.000000000000e+00
  -5.616086863297e-03 -9.596001249637e-02 0.000000000000e+00
  -8.318306782914e-03 -1.211324694233e-01 0.000000000000e+00
  -1.198680854264e-02 -1.411101627375e-01 0.000000000000e+00
  -1.610872491949e-02 -1.540601083394e-01 0.000000000000e+00
  -2.036562422766e-02 -1.608828640180e-01 0.000000000000e+00
  -2.463424904757e-02 -1.625249075522e-01 0.000000000000e+00
  -2.886123068247e-02 -1.578117532212e-01 0.000000000000e+00
  -3.291215482963e-02 -1.429760195445e-01 0.000000000000e+00
  -3.648978219431e-02 -1.130800056903e-01 0.000000000000e+00
  -3.916517037646e-02 -6.454517949072e-02 0.000000000000e+00
  -4.050198005719e-02 2.503037712892e-03 0.000000000000e+00
  -4.021019101885e-02 8.318002653329e-02 0.000000000000e+00
  -3.825752954016e-02 1.684786086208e-01 0.000000000000e+00
  -3.489283052974e-02 2.472164351738e-01 0.000000000000e+00
  -3.057841014222e-02 3.084620634888e-01 0.000000000000e+00
  -2.586638388001e-02 3.436316877043e-01 0.000000000000e+00
  -2.127062438447e-02 3.477846791539e-01 0.000000000000e+00
  -1.717833969039e-02 3.200174218002e-01 0.000000000000e+00
  -1.382176999759e-02 2.630974562825e-01 0.000000000000e+00
  -1.130489809316e-02 1.826022491403e-01 0.000000000000e+00
  -9.662790804673e-03 8.588875931709e-02 0.000000000000e+00
  -8.925570974823e-03 -1.879141197937e-02 0.000000000000e+00
  -9.162686045870e-03 -1.228582393800e-01 0.000000000000e+00
  -1.049188673679e-02 -2.177228750987e-01 0.000000000000e+00
  -1.304811154374e-02 -2.951281516180e-01 0.000000000000e+00
  -1.691903893117e-02 -3.477697689824e-01 0.000000000000e+00
  -2.206567097052e-02 -3.702481265476e-01 0.000000000000e+00
  -2.825575564193e-02 -3.601455691653e-01 0.000000000000e+00
  -3.504059563350e-02 -3.188809942283e-01 0.000000000000e+00
  -4.179671360611e-02 -2.519958609481e-01 0.000000000000e+00
  -4.783169866533e-02 -1.686170185031e-01 0.000000000000e+00
  -5.252502335396e-02 -8.000083613811e-02 0.000000000000e+00
  -5.545350752700e-02 2.670248564801e-03 0.000000000000e+00
  -5.645117977839e-02 7.070572514951e-02 0.000000000000e+00
  -5.557886997622e-02 1.197179571423e-01 0.000000000000e+00
  -5.302035435700e-02 1.500450076479e-01 0.000000000000e+00
  -4.895982807918e-02 1.654989401317e-01 0.000000000000e+00
  -4.351024356222e-02 1.709310015122e-01 0.000000000000e+00
  -3.674281665985e-02 1.697546756744e-01 0.000000000000e+00
  -2.881798574349e-02 1.626860988057e-01 0.000000000000e+00
  -2.015589447530e-02 1.484120471778e-01 0.000000000000e+00
  -1.154048463870e-02 1.259056833992e-01 0.000000000000e+00
  -4.056193537296e-03 9.716783671206e-02 0.000000000000e+00
  1.177938803554e-03 6.879022093860e-02 0.000000000000e+00
  3.407264013913e-03 5.118794471882e-02 0.000000000000e+00
  2.613148800420e-03 5.547853527790e-02 0.000000000000e+00
  -3.246763121313e-04 8.923602636144e-02 0.000000000000e+00
  -3.785750276055e-03 1.530328017850e-01 0.000000000000e+00
  -5.862078736574e-03 2.393865225428e-01 0.000000000000e+00
  -4.950193017919e-03 3.345974301923e-01 0.000000000000e+00
  -2.625812192730e-04 4.226210661638e-01 0.000000000000e+00
  7.925032423589e-03 4.892961127894e-01 0.000000000000e+00
  1.836115347318e-02 5.253163904621e-01 0.000000000000e+00
  2.917903748217e-02 5.271502347313e-01 0.000000000000e+00
  3.837813676729e-02 4.961455942008e-01 0.000000000000e+00
  4.425985947521e-02 4.367615925605e-01 0.000000000000e+00
  4.570553106375e-02 3.549520500078e-01 0.000000000000e+00
  4.226877929634e-02 2.572810302130e-01 0.000000000000e+00
  3.412309917473e-02 1.507292072658e-01 0.000000000000e+00
  2.193229540854e-02 4.273950347889e-02 0.000000000000e+00
  6.700535038402e-03 -5.896109215200e-02 0.000000000000e+00
  -1.036838093068e-02 -1.469396670590e-01 0.000000000000e+00
  -2.799634484467e-02 -2.148987551516e-01 0.000000000000e+00
  -4.494713796069e-02 -2.585165308841e-01 0.000000000000e+00
  -6.014224565177e-02 -2.760746065590e-01 0.000000000000e+00
  -7.277805034360e-02 -2.687388177562e-01 0.000000000000e+00
  -8.242927570242e-02 -2.403569357931e-01 0.000000000000e+00
  -8.910317410178e-02 -1.966417244657e-01 0.000000000000e+00
  -9.320142943010e-02 -1.437840431103e-01 0.000000000000e+00
  -9.536802503926e-02 -8.689793269516e-02 0.000000000000e+00
  -9.625007270546e-02 -2.898663468751e-02 0.000000000000e+00
  0.000000000000e+00 0.000000000000e+00 0.000000000000e+00
  0.000000000000e+00 0.000000000000e+00 0.000000000000e+00
  -1.393821007477e-01 2.771831846434e-02 0.000000000000e+00
  -1.389279778077e-01 8.305355054578e-02 0.000000000000e+00
  -1.373263470183e-01 1.373263470183e-01 0.000000000000e+00
  -1.334159123732e-01 1.877412271761e-01 0.000000000000e+00
  -1.259257693784e-01 2.296258551762e-01 0.000000000000e+00
  -1.138357795654e-01 2.573804162339e-01 0.000000000000e+00
  -9.663934007239e-02 2.658652259105e-01 0.000000000000e+00
  -7.447659655143e-02 2.515993994102e-01 0.000000000000e+00
  -4.816047223563e-02 2.134351747311e-01 0.000000000000e+00
  -1.913087072683e-02 1.527101141280e-01 0.000000000000e+00
  1.064622117494e-02 7.302246560109e-02 0.000000000000e+00
  3.883897733661e-02 -2.025595313875e-02 0.000000000000e+00
  6.297769387254e-02 -1.206441695397e-01 0.000000000000e+00
  8.074836691976e-02 -2.212419314347e-01 0.000000000000e+00
  9.033484850085e-02 -3.152239142366e-01 0.000000000000e+00
  9.077387260162e-02 -3.960054384986e-01 0.000000000000e+00
  8.225823234646e-02 -4.572173228795e-01 0.000000000000e+00
  6.628924609978e-02 -4.928976515554e-01 0.000000000000e+00
  4.556836983530e-02 -4.983211965135e-01 0.000000000000e+00
  2.356372336590e-02 -4.715298374105e-01 0.000000000000e+00
  3.797273281616e-03 -4.150526925190e-01 0.000000000000e+00
  -1.096806454492e-02 -3.368669131092e-01 0.000000000000e+00
  -1.937717886199e-02 -2.496939887695e-01 0.000000000000e+00
  -2.172691183992e-02 -1.683569031460e-01 0.000000000000e+00
  -1.970484792505e-02 -1.058898082033e-01 0.000000000000e+00
  -1.572108298117e-02 -6.987658660759e-02 0.000000000000e+00
  -1.209587898137e-02 -6.059659592615e-02 0.000000000000e+00
  -1.041400832123e-02 -7.181954211937e-02 0.000000000000e+00
  -1.126294260490e-02 -9.385689886256e-02 0.000000000000e+00
  -1.438528487995e-02 -1.174110208621e-01 0.000000000000e+00
  -1.909265228913e-02 -1.364557421291e-01 0.000000000000e+00
  -2.469932388120e-02 -1.489859409775e-01 0.000000000000e+00
  -3.077347925158e-02 -1.556259766985e-01 0.000000000000e+00
  -3.713439197956e-02 -1.571522573182e-01 0.000000000000e+00
  -4.366561017124e-02 -1.524262036180e-01 0.000000000000e+00
  -5.009463712940e-02 -1.378816180233e-01 0.000000000000e+00
  -5.588108703707e-02 -1.088103299066e-01 0.000000000000e+00
  -6.027884740769e-02 -6.174170666888e-02 0.000000000000e+00
  -6.254171868084e-02 3.299245926608e-03 0.000000000000e+00
  -6.217352587320e-02 8.172383659431e-02 0.000000000000e+00
  -5.910936274353e-02 1.649179741214e-01 0.000000000000e+00
  -5.375351112861e-02 2.420565192758e-01 0.000000000000e+00
  -4.686749676007e-02 3.024215449213e-01 0.000000000000e+00
  -3.936421435547e-02 3.374568979564e-01 0.000000000000e+00
  -3.209349257910e-02 3.420929880319e-01 0.000000000000e+00
  -2.569316596523e-02 3.152165020469e-01 0.000000000000e+00
  -2.054080322958e-02 2.593894440419e-01 0.000000000000e+00
  -1.679769259129e-02 1.800502792397e-01 0.000000000000e+00
  -1.450709193247e-02 8.450802160200e-02 0.000000000000e+00
  -1.369950216450e-02 -1.895548363376e-02 0.000000000000e+00
  -1.446467661565e-02 -1.216918781027e-01 0.000000000000e+00
  -1.696543731511e-02 -2.150592750235e-01 0.000000000000e+00
  -2.138648865998e-02 -2.908144757136e-01 0.000000000000e+00
  -2.783027871238e-02 -3.417687277351e-01 0.000000000000e+00
  -3.619068994217e-02 -3.627421249000e-01 0.000000000000e+00
  -4.605045345530e-02 -3.516017230526e-01 0.000000000000e+00
  -5.665195737484e-02 -3.100384968677e-01 0.000000000000e+00
  -6.697501425698e-02 -2.437591838732e-01 0.000000000000e+00
  -7.591760237266e-02 -1.618761227796e-01 0.000000000000e+00
  -8.252860535632e-02 -7.543740450849e-02 0.000000000000e+00
  -8.620858477224e-02 4.715280267846e-03 0.000000000000e+00
  -8.679774343283e-02 7.024752416293e-02 0.000000000000e+00
  -8.451465768899e-02 1.170207624409e-01 0.000000000000e+00
  -7.977710104092e-02 1.454461299839e-01 0.000000000000e+00
  -7.299486055782e-02 1.592550509702e-01 0.000000000000e+00
  -6.444390457652e-02 1.631743501348e-01 0.000000000000e+00
  -5.429812937962e-02 1.605981249282e-01 0.000000000000e+00
  -4.281758143042e-02 1.524372706725e-01 0.000000000000e+00
  -3.059966913827e-02 1.377808717431e-01 0.000000000000e+00
  -1.873616630928e-02 1.160579461644e-01 0.000000000000e+00
  -8.726732148030e-03 8.952184868229e-02 0.000000000000e+00
  -2.096078943664e-03 6.457142342224e-02 0.000000000000e+00
  1.845059319154e-04 5.089683214883e-02 0.000000000000e+00
  -1.764237727298e-03 5.851250672042e-02 0.000000000000e+00
  -6.500096497918e-03 9.387573880202e-02 0.000000000000e+00
  -1.150528493744e-02 1.568593517478e-01 0.000000000000e+00
  -1.387415895819e-02 2.400051750613e-01 0.000000000000e+00
  -1.121063574296e-02 3.304033687400e-01 0.000000000000e+00
  -2.405589672266e-03 4.133224697468e-01 0.000000000000e+00
  1.198613225129e-02 4.760153736400e-01 0.000000000000e+00
  2.988245280356e-02 5.102646880096e-01 0.000000000000e+00
  4.823737743087e-02 5.130291285474e-01 0.000000000000e+00
  6.380152371856e-02 4.855034548118e-01 0.000000000000e+00
  7.382092982182e-02 4.315026031383e-01 0.000000000000e+00
  7.649210284583e-02 3.560941948175e-01 0.000000000000e+00
  7.111894612435e-02 2.649487938923e-01 0.000000000000e+00
  5.802701044906e-02 1.642990593834e-01 0.000000000000e+00
  3.834036959901e-02 6.104709597748e-02 0.000000000000e+00
  1.371742593110e-02 -3.741398061253e-02 0.000000000000e+00
  -1.389622076071e-02 -1.238042159376e-01 0.000000000000e+00
  -4.247756649606e-02 -1.918248966237e-01 0.000000000000e+00
  -7.010324446507e-02 -2.370139183270e-01 0.000000000000e+00
  -9.510927378019e-02 -2.573760821099e-01 0.000000000000e+00
  -1.162442600846e-01 -2.536665512092e-01 0.000000000000e+00
  -1.328040351816e-01 -2.292182018843e-01 0.000000000000e+00
  -1.447036189037e-01 -1.892069762531e-01 0.000000000000e+00
  -1.524261073867e-01 -1.393980475116e-01 0.000000000000e+00
  -1.568137414387e-01 -8.472969863264e-02 0.000000000000e+00
  -1.587347025648e-01 -2.835185995771e-02 0.000000000000e+00
  0.000000000000e+00 0.000000000000e+00 0.000000000000e+00
  0.000000000000e+00 0.000000000000e+00 0.000000000000e+00
  -1.932805781633e-01 2.730519895726e-02 0.000000000000e+00
  -1.916858063140e-01 8.141777526356e-02 0.000000000000e+00
  -1.877412271761e-01 1.334159123732e-01 0.000000000000e+00
  -1.801991375512e-01 1.801991375512e-01 0.000000000000e+00
  -1.677302691391e-01 2.172089333940e-01 0.000000000000e+00
  -1.493261360676e-01 2.393032151316e-01 0.000000000000e+00
  -1.245789544423e-01 2.419988058945e-01 0.000000000000e+00
  -9.381350820249e-02 2.225376296656e-01 0.000000000000e+00
  -5.811168578179e-02 1.804789977393e-01 0.000000000000e+00
  -1.927866648992e-02 1.178036703192e-01 0.000000000000e+00
  2.023594927610e-02 3.863720174211e-02 0.000000000000e+00
  5.748663807444e-02 -5.131413423978e-02 0.000000000000e+00
  8.928454003072e-02 -1.455226069309e-01 0.000000000000e+00
  1.125693664597e-01 -2.374189935197e-01 0.000000000000e+00
  1.248813475983e-01 -3.209453148712e-01 0.000000000000e+00
  1.248720062294e-01 -3.907137205959e-01 0.000000000000e+00
  1.127446965549e-01 -4.418660908525e-01 0.000000000000e+00
  9.047543485471e-02 -4.700106356356e-01 0.000000000000e+00
  6.166559529022e-02 -4.716774966043e-01 0.000000000000e+00
  3.095472787124e-02 -4.454580234313e-01 0.000000000000e+00
  3.071742059483e-03 -3.934750706022e-01 0.000000000000e+00