# vtk DataFile Version 3.0
Karman Output
ASCII
DATASET RECTILINEAR_GRID
DIMENSIONS 101 101 1
X_COORDINATES 101 float
   0.000000000000e+00   9.900990099010e-03   1.980198019802e-02   2.970297029703e-02   3.960396039604e-02   4.950495049505e-02   5.940594059406e-02   6.930693069307e-02   7.920792079208e-02   8.910891089109e-02   9.900990099010e-02   1.089108910891e-01   1.188118811881e-01   1.287128712871e-01   1.386138613861e-01   1.485148514851e-01   1.584158415842e-01   1.683168316832e-01   1.782178217822e-01   1.881188118812e-01   1.980198019802e-01   2.079207920792e-01   2.178217821782e-01   2.277227722772e-01   2.376237623762e-01   2.475247524752e-01   2.574257425743e-01   2.673267326733e-01   2.772277227723e-01   2.871287128713e-01   2.970297029703e-01   3.069306930693e-01   3.168316831683e-01   3.267326732673e-01   3.366336633663e-01   3.465346534653e-01   3.564356435644e-01   3.663366336634e-01   3.762376237624e-01   3.861386138614e-01   3.960396039604e-01   4.059405940594e-01   4.158415841584e-01   4.257425742574e-01   4.356435643564e-01   4.455445544554e-01   4.554455445545e-01   4.653465346535e-01   4.752475247525e-01   4.851485148515e-01   4.950495049505e-01   5.049504950495e-01   5.148514851485e-01   5.247524752475e-01   5.346534653465e-01   5.445544554455e-01   5.544554455446e-01   5.643564356436e-01   5.742574257426e-01   5.841584158416e-01   5.940594059406e-01   6.039603960396e-01   6.138613861386e-01   6.237623762376e-01   6.336633663366e-01   6.435643564356e-01   6.534653465347e-01   6.633663366337e-01   6.732673267327e-01   6.831683168317e-01   6.930693069307e-01   7.029702970297e-01   7.128712871287e-01   7.227722772277e-01   7.326732673267e-01   7.425742574257e-01   7.524752475248e-01   7.623762376238e-01   7.722772277228e-01   7.821782178218e-01   7.920792079208e-01   8.019801980198e-01   8.118811881188e-01   8.217821782178e-01   8.316831683168e-01   8.415841584158e-01   8.514851485149e-01   8.613861386139e-01   8.712871287129e-01   8.811881188119e-01   8.910891089109e-01   9.009900990099e-01   9.108910891089e-01   9.207920792079e-01   9.306930693069e-01   9.405940594059e-01   9.504950495050e-01   9.603960396040e-01   9.702970297030e-01   9.801980198020e-01   9.900990099010e-01
Y_COORDINATES 101 float
   0.000000000000e+00   9.900990099010e-03   1.980198019802e-02   2.970297029703e-02   3.960396039604e-02   4.950495049505e-02   5.940594059406e-02   6.930693069307e-02   7.920792079208e-02   8.910891089109e-02   9.900990099010e-02   1.089108910891e-01   1.188118811881e-01   1.287128712871e-01   1.386138613861e-01   1.485148514851e-01   1.584158415842e-01   1.683168316832e-01   1.782178217822e-01   1.881188118812e-01   1.980198019802e-01   2.079207920792e-01   2.178217821782e-01   2.277227722772e-01   2.376237623762e-01   2.475247524752e-01   2.574257425743e-01   2.673267326733e-01   2.772277227723e-01   2.871287128713e-01   2.970297029703e-01   3.069306930693e-01   3.168316831683e-01   3.267326732673e-01   3.366336633663e-01   3.465346534653e-01   3.564356435644e-01   3.663366336634e-01   3.762376237624e-01   3.861386138614e-01   3.960396039604e-01   4.059405940594e-01   4.158415841584e-01   4.257425742574e-01   4.356435643564e-01   4.455445544554e-01   4.554455445545e-01   4.653465346535e-01   4.752475247525e-01   4.851485148515e-01   4.950495049505e-01   5.049504950495e-01   5.148514851485e-01   5.247524752475e-01   5.346534653465e-01   5.445544554455e-01   5.544554455446e-01   5.643564356436e-01   5.742574257426e-01   5.841584158416e-01   5.940594059406e-01   6.039603960396e-01   6.138613861386e-01   6.237623762376e-01   6.336633663366e-01   6.435643564356e-01   6.534653465347e-01   6.633663366337e-01   6.732673267327e-01   6.831683168317e-01   6.930693069307e-01   7.029702970297e-01   7.128712871287e-01   7.227722772277e-01   7.326732673267e-01   7.425742574257e-01   7.524752475248e-01   7.623762376238e-01   7.722772277228e-01   7.821782178218e-01   7.920792079208e-01   8.019801980198e-01   8.118811881188e-01   8.217821782178e-01   8.316831683168e-01   8.415841584158e-01   8.514851485149e-01   8.613861386139e-01   8.712871287129e-01   8.811881188119e-01   8.910891089109e-01   9.009900990099e-01   9.108910891089e-01   9.207920792079e-01   9.306930693069e-01   9.405940594059e-01   9.504950495050e-01   9.603960396040e-01   9.702970297030e-01   9.801980198020e-01   9.900990099010e-01
Z_COORDINATES 1 float
  0.000000000000e+00
POINT_DATA 10201
VECTORS E_field float
  0.000000000000e+00 0.000000000000e+00 0.000000000000e+00
  0.000000000000e+00 0.000000000000e+00 0.000000000000e+00
  0.000000000000e+00 0.000000000000e+00 0.000000000000e+00
  0.000000000000e+00 0.000000000000e+00 0.000000000000e+00
  0.000000000000e+00 0.000000000000e+00 0.000000000000e+00
  0.000000000000e+00 0.000000000000e+00 0.000000000000e+00
  0.000000000000e+00 0.000000000000e+00 0.000000000000e+00
  0.000000000000e+00 0.000000000000e+00 0.000000000000e+00
  0.000000000000e+00 0.000000000000e+00 0.000000000000e+00
  0.000000000000e+00 0.000000000000e+00 0.000000000000e+00
  0.000000000000e+00 0.000000000000e+00 0.000000000000e+00
  0.000000000000e+00 0.000000000000e+00 0.000000000000e+00
  0.000000000000e+00 0.000000000000e+00 0.000000000000e+00
  0.000000000000e+00 0.000000000000e+00 0.000000000000e+00
  0.000000000000e+00 0.000000000000e+00 0.000000000000e+00
  0.000000000000e+00 0.000000000000e+00 0.000000000000e+00
  0.000000000000e+00 0.000000000000e+00 0.000000000000e+00
  0.000000000000e+00 0.000000000000e+00 0.000000000000e+00
  0.000000000000e+00 0.000000000000e+00 0.000000000000e+00
  0.000000000000e+00 0.000000000000e+00 0.000000000000e+00
  0.000000000000e+00 0.000000000000e+00 0.000000000000e+00
  0.000000000000e+00 0.000000000000e+00 0.000000000000e+00
  0.000000000000e+00 0.000000000000e+00 0.000000000000e+00
  0.000000000000e+00 0.000000000000e+00 0.000000000000e+00
  0.000000000000e+00 0.000000000000e+00 0.000000000000e+00
  0.000000000000e+00 0.000000000000e+00 0.000000000000e+00
  0.000000000000e+00 0.000000000000e+00 0.000000000000e+00
  0.000000000000e+00 0.000000000000e+00 0.000000000000e+00
  0.000000000000e+00 0.000000000000e+00 0.000000000000e+00
  0.000000000000e+00 0.000000000000e+00 0.000000000000e+00
  0.000000000000e+00 0.000000000000e+00 0.000000000000e+00
  0.000000000000e+00 0.000000000000e+00 0.000000000000e+00
  0.000000000000e+00 0.000000000000e+00 0.000000000000e+00
  0.000000000000e+00 0.000000000000e+00 0.000000000000e+00
  0.000000000000e+00 0.000000000000e+00 0.000000000000e+00
  0.000000000000e+00 0.000000000000e+00 0.000000000000e+00
  0.000000000000e+00 0.000000000000e+00 0.000000000000e+00
  0.000000000000e+00 0.000000000000e+00 0.000000000000e+00
  0.000000000000e+00 0.000000000000e+00 0.000000000000e+00
  0.000000000000e+00 0.000000000000e+00 0.000000000000e+00
  0.000000000000e+00 0.000000000000e+00 0.000000000000e+00
  0.000000000000e+00 0.000000000000e+00 0.000000000000e+00
  0.000000000000e+00 0.000000000000e+00 0.000000000000e+00
  0.000000000000e+00 0.000000000000e+00 0.000000000000e+00
  0.000000000000e+00 0.000000000000e+00 0.000000000000e+00
  0.000000000000e+00 0.000000000000e+00 0.000000000000e+00
  0.000000000000e+00 0.000000000000e+00 0.000000000000e+00
  0.000000000000e+00 0.000000000000e+00 0.000000000000e+00
  0.000000000000e+00 0.000000000000e+00 0.000000000000e+00
  0.000000000000e+00 0.000000000000e+00 0.000000000000e+00
  0.000000000000e+00 0.000000000000e+00 0.000000000000e+00
  0.000000000000e+00 0.000000000000e+00 0.000000000000e+00
  0.000000000000e+00 0.000000000000e+00 0.000000000000e+00
  0.000000000000e+00 0.000000000000e+00 0.000000000000e+00
  0.000000000000e+00 0.000000000000e+00 0.000000000000e+00
  0.000000000000e+00 0.000000000000e+00 0.000000000000e+00
  0.000000000000e+00 0.000000000000e+00 0.000000000000e+00
  0.000000000000e+00 0.000000000000e+00 0.000000000000e+00
  0.000000000000e+00 0.000000000000e+00 0.000000000000e+00
  0.000000000000e+00 0.000000000000e+00 0.000000000000e+00
  0.000000000000e+00 0.000000000000e+00 0.000000000000e+00
  0.000000000000e+00 0.000000000000e+00 0.000000000000e+00
  0.000000000000e+00 0.000000000000e+00 0.000000000000e+00
  0.000000000000e+00 0.000000000000e+00 0.000000000000e+00
  0.000000000000e+00 0.000000000000e+00 0.000000000000e+00
  0.000000000000e+00 0.000000000000e+00 0.000000000000e+00
  0.000000000000e+00 0.000000000000e+00 0.000000000000e+00
  0.000000000000e+00 0.000000000000e+00 0.000000000000e+00
  0.000000000000e+00 0.000000000000e+00 0.000000000000e+00
  0.000000000000e+00 0.000000000000e+00 0.000000000000e+00
  0.000000000000e+00 0.000000000000e+00 0.000000000000e+00
  0.000000000000e+00 0.000000000000e+00 0.000000000000e+00
  0.000000000000e+00 0.000000000000e+00 0.000000000000e+00
  0.000000000000e+00 0.000000000000e+00 0.000000000000e+00
  0.000000000000e+00 0.000000000000e+00 0.000000000000e+00
  0.000000000000e+00 0.000000000000e+00 0.000000000000e+00
  0.000000000000e+00 0.000000000000e+00 0.000000000000e+00
  0.000000000000e+00 0.000000000000e+00 0.000000000000e+00
  0.000000000000e+00 0.000000000000e+00 0.000000000000e+00
  0.000000000000e+00 0.000000000000e+00 0.000000000000e+00
  0.000000000000e+00 0.000000000000e+00 0.000000000000e+00
  0.000000000000e+00 0.000000000000e+00 0.000000000000e+00
  0.000000000000e+00 0.000000000000e+00 0.000000000000e+00
  0.000000000000e+00 0.000000000000e+00 0.000000000000e+00
  0.000000000000e+00 0.000000000000e+00 0.000000000000e+00
  0.000000000000e+00 0.000000000000e+00 0.000000000000e+00
  0.000000000000e+00 0.000000000000e+00 0.000000000000e+00
  0.000000000000e+00 0.000000000000e+00 0.000000000000e+00
  0.000000000000e+00 0.000000000000e+00 0.000000000000e+00
  0.000000000000e+00 0.000000000000e+00 0.000000000000e+00
  0.000000000000e+00 0.000000000000e+00 0.000000000000e+00
  0.000000000000e+00 0.000000000000e+00 0.000000000000e+00
  0.000000000000e+00 0.000000000000e+00 0.000000000000e+00
  0.000000000000e+00 0.000000000000e+00 0.000000000000e+00
  0.000000000000e+00 0.000000000000e+00 0.000000000000e+00
  0.000000000000e+00 0.000000000000e+00 0.000000000000e+00
  0.000000000000e+00 0.000000000000e+00 0.000000000000e+00
  0.000000000000e+00 0.000000000000e+00 0.000000000000e+00
  0.000000000000e+00 0.000000000000e+00 0.000000000000e+00
  0.000000000000e+00 0.000000000000e+00 0.000000000000e+00
  0.000000000000e+00 0.000000000000e+00 0.000000000000e+00
  0.000000000000e+00 0.000000000000e+00 0.000000000000e+00
  3.755686532516e-02 -3.755686532516e-02 0.000000000000e+00
  3.537087544726e-02 -1.084552136368e-01 0.000000000000e+00
  3.130942425018e-02 -1.671379168368e-01 0.000000000000e+00
  2.591639472124e-02 -2.068752278142e-01 0.000000000000e+00
  1.984408242852e-02 -2.229590546474e-01 0.000000000000e+00
  1.372440598161e-02 -2.132585559239e-01 0.000000000000e+00
  8.073451414612e-03 -1.784871800341e-01 0.000000000000e+00
  3.244479595754e-03 -1.221572078749e-01 0.000000000000e+00
  -5.783637728319e-04 -5.025233699589e-02 0.000000000000e+00
  -3.363783521107e-03 2.936648509177e-02 0.000000000000e+00
  -5.207552474396e-03 1.078517077016e-01 0.000000000000e+00
  -6.298473447123e-03 1.765574552138e-01 0.000000000000e+00
  -6.871648069360e-03 2.283786253597e-01 0.000000000000e+00
  -7.150686659477e-03 2.589119186904e-01 0.000000000000e+00
  -7.292480671974e-03 2.670490627646e-01 0.000000000000e+00
  -7.354360583907e-03 2.547606788463e-01 0.000000000000e+00
  -7.296838932602e-03 2.261292464108e-01 0.000000000000e+00
  -7.019213506322e-03 1.859858103713e-01 0.000000000000e+00
  -6.410794097871e-03 1.386514487744e-01 0.000000000000e+00
  -5.396446589067e-03 8.721686882232e-02 0.000000000000e+00
  -3.962410519841e-03 3.353960166456e-02 0.000000000000e+00
  -2.160448675498e-03 -2.119638456964e-02 0.000000000000e+00
  -9.753012928001e-05 -7.576917112915e-02 0.000000000000e+00
  2.079144939432e-03 -1.284912694173e-01 0.000000000000e+00
  4.194461665181e-03 -1.772632512630e-01 0.000000000000e+00
  6.052083279806e-03 -2.199532991136e-01 0.000000000000e+00
  7.436923375334e-03 -2.547352620766e-01 0.000000000000e+00
  8.118931301160e-03 -2.801081074466e-01 0.000000000000e+00
  7.866897615783e-03 -2.946333581540e-01 0.000000000000e+00
  6.480782648643e-03 -2.967028587601e-01 0.000000000000e+00
  3.844876481171e-03 -2.846674426112e-01 0.000000000000e+00
  -7.823846285889e-06 -2.574190030959e-01 0.000000000000e+00
  -4.842461702234e-03 -2.152175613890e-01 0.000000000000e+00
  -1.020882229034e-02 -1.603916009870e-01 0.000000000000e+00
  -1.548873933757e-02 -9.757226509260e-02 0.000000000000e+00
  -2.000491942223e-02 -3.327555004088e-02 0.000000000000e+00
  -2.316481054655e-02 2.517050555784e-02 0.000000000000e+00
  -2.459292614903e-02 7.117400322537e-02 0.000000000000e+00
  -2.420348638680e-02 1.005334561002e-01 0.000000000000e+00
  -2.218634070481e-02 1.126669853635e-01 0.000000000000e+00
  -1.891497454530e-02 1.108608840481e-01 0.000000000000e+00
  -1.481880931842e-02 1.012164184711e-01 0.000000000000e+00
  -1.027538563861e-02 9.047628141842e-02 0.000000000000e+00
  -5.563748890908e-03 8.349483290621e-02 0.000000000000e+00
  -8.861081154413e-04 8.144559107641e-02 0.000000000000e+00
  3.570359773669e-03 8.165667394928e-02 0.000000000000e+00
  7.576875056032e-03 7.923338786413e-02 0.000000000000e+00
  1.084856265369e-02 6.971828075822e-02 0.000000000000e+00
  1.308260743653e-02 5.146720823083e-02 0.000000000000e+00
  1.403098183764e-02 2.653848664426e-02 0.000000000000e+00
  1.357316640214e-02 -3.389370537885e-04 0.000000000000e+00
  1.175549518855e-02 -2.414621549585e-02 0.000000000000e+00
  8.779800275577e-03 -4.203150712836e-02 0.000000000000e+00
  4.947178307786e-03 -5.454597163733e-02 0.000000000000e+00
  5.834451367900e-04 -6.501978027504e-02 0.000000000000e+00
  -4.018174316469e-03 -7.742323973005e-02 0.000000000000e+00
  -8.610364486347e-03 -9.383987473680e-02 0.000000000000e+00
  -1.295891338949e-02 -1.128449385828e-01 0.000000000000e+00
  -1.679030646014e-02 -1.295715709873e-01 0.000000000000e+00
  -1.976218952720e-02 -1.373758031595e-01 0.000000000000e+00
  -2.149100394728e-02 -1.302737213946e-01 0.000000000000e+00
  -2.164118340550e-02 -1.050802447553e-01 0.000000000000e+00
  -2.004451734549e-02 -6.246528049552e-02 0.000000000000e+00
  -1.679673508675e-02 -6.710206015510e-03 0.000000000000e+00
  -1.228337929585e-02 5.553373277989e-02 0.000000000000e+00
  -7.116231483981e-03 1.169218811277e-01 0.000000000000e+00
  -1.999759492828e-03 1.709754109196e-01 0.000000000000e+00
  2.424748936197e-03 2.131423714986e-01 0.000000000000e+00
  5.704155191146e-03 2.411882592535e-01 0.000000000000e+00
  7.631804257469e-03 2.549352789355e-01 0.000000000000e+00
  8.233269301542e-03 2.555431685114e-01 0.000000000000e+00
  7.700579443703e-03 2.446623906769e-01 0.000000000000e+00
  6.308943228746e-03 2.238202192192e-01 0.000000000000e+00
  4.346239492567e-03 1.942546191615e-01 0.000000000000e+00
  2.070976414025e-03 1.571332664594e-01 0.000000000000e+00
  -3.014860130133e-04 1.138605264332e-01 0.000000000000e+00
  -2.594679061633e-03 6.616451142897e-02 0.000000000000e+00
  -4.661361132187e-03 1.588613701119e-02 0.000000000000e+00
  -6.378363833711e-03 -3.532211319412e-02 0.000000000000e+00
  -7.651101052528e-03 -8.607231323000e-02 0.000000000000e+00
  -8.427225732238e-03 -1.349309573628e-01 0.000000000000e+00
  -8.712567266935e-03 -1.798529400451e-01 0.000000000000e+00
  -8.577363727173e-03 -2.177076778497e-01 0.000000000000e+00
  -8.141003414803e-03 -2.442573473955e-01 0.000000000000e+00
  -7.531939049227e-03 -2.547644293801e-01 0.000000000000e+00
  -6.833615453681e-03 -2.451308221651e-01 0.000000000000e+00
  -6.038804122475e-03 -2.132234273870e-01 0.000000000000e+00
  -5.034862297483e-03 -1.599217547895e-01 0.000000000000e+00
  -3.629235795445e-03 -8.949251452369e-02 0.000000000000e+00
  -1.605728829299e-03 -9.138608155250e-03 0.000000000000e+00
  1.210227926859e-03 7.212780198155e-02 0.000000000000e+00
  4.897827272103e-03 1.449336765689e-01 0.000000000000e+00
  9.407915731426e-03 2.009429098858e-01 0.000000000000e+00
  1.454942494711e-02 2.339563760337e-01 0.000000000000e+00
  1.999195159227e-02 2.406092281628e-01 0.000000000000e+00
  2.528693004307e-02 2.206386262357e-01 0.000000000000e+00
  2.991440281984e-02 1.767315537496e-01 0.000000000000e+00
  3.335803769526e-02 1.140197862049e-01 0.000000000000e+00
  3.519802784374e-02 3.936827240395e-02 0.000000000000e+00
  0.000000000000e+00 0.000000000000e+00 0.000000000000e+00
  0.000000000000e+00 0.000000000000e+00 0.000000000000e+00
  1.084552136368e-01 -3.537087544726e-02 0.000000000000e+00
  1.022172809069e-01 -1.022172809069e-01 0.000000000000e+00
  9.062864116245e-02 -1.577257586251e-01 0.000000000000e+00
  7.524367249781e-02 -1.955093878323e-01 0.000000000000e+00
  5.792710466543e-02 -2.109360145042e-01 0.000000000000e+00
  4.048521606565e-02 -2.017200310205e-01 0.000000000000e+00
  2.439114197911e-02 -1.682806762841e-01 0.000000000000e+00
  1.064835629725e-02 -1.137919541243e-01 0.000000000000e+00
  -2.284237307909e-04 -4.391796734991e-02 0.000000000000e+00
  -8.165588037311e-03 3.375469950059e-02 0.000000000000e+00
  -1.345331739942e-02 1.105949916082e-01 0.000000000000e+00
  -1.664323296159e-02 1.780950078421e-01 0.000000000000e+00
  -1.841008913400e-02 2.291811035260e-01 0.000000000000e+00
  -1.938385685318e-02 2.593622468333e-01 0.000000000000e+00
  -1.999204522467e-02 2.673487170056e-01 0.000000000000e+00
  -2.036888928992e-02 2.548997485824e-01 0.000000000000e+00
  -2.036844191394e-02 2.259322076474e-01 0.000000000000e+00
  -1.967282967908e-02 1.852096114736e-01 0.000000000000e+00
  -1.794532299361e-02 1.370917215782e-01 0.000000000000e+00
  -1.496595624283e-02 8.478288175897e-02 0.000000000000e+00
  -1.070791236770e-02 3.028150878354e-02 0.000000000000e+00
  -5.347786124535e-03 -2.510037977613e-02 0.000000000000e+00
  7.697296128127e-04 -8.004561020623e-02 0.000000000000e+00
  7.182906802452e-03 -1.328046825986e-01 0.000000000000e+00
  1.335594582967e-02 -1.812381938347e-01 0.000000000000e+00
  1.870297407473e-02 -2.231830064016e-01 0.000000000000e+00
  2.259664676779e-02 -2.567840675772e-01 0.000000000000e+00
  2.437855440756e-02 -2.805232175116e-01 0.000000000000e+00
  2.339793256290e-02 -2.929855925589e-01 0.000000000000e+00
  1.910313052936e-02 -2.926697073544e-01 0.000000000000e+00
  1.119096890297e-02 -2.781525262229e-01 0.000000000000e+00
  -2.149564387073e-04 -2.486752938148e-01 0.000000000000e+00
  -1.442056938844e-02 -2.049210198639e-01 0.000000000000e+00
  -3.013017840028e-02 -1.496121729112e-01 0.000000000000e+00
  -4.558427423230e-02 -8.761768028746e-02 0.000000000000e+00
  -5.886513354659e-02 -2.543309544412e-02 0.000000000000e+00
  -6.829619475771e-02 2.991900330161e-02 0.000000000000e+00
  -7.280716688196e-02 7.236459321668e-02 0.000000000000e+00
  -7.213363807563e-02 9.827989755340e-02 0.000000000000e+00
  -6.677810138024e-02 1.075478615524e-01 0.000000000000e+00
  -5.775739155854e-02 1.036879319056e-01 0.000000000000e+00
  -4.625289809753e-02 9.278871196299e-02 0.000000000000e+00
  -3.331641182582e-02 8.142407802289e-02 0.000000000000e+00
  -1.974484199814e-02 7.426382978462e-02 0.000000000000e+00
  -6.142172261224e-03 7.239628375260e-02 0.000000000000e+00
  6.910493882195e-03 7.319684731295e-02 0.000000000000e+00
  1.870327375139e-02 7.189391942184e-02 0.000000000000e+00
  2.836671509632e-02 6.412262032544e-02 0.000000000000e+00
  3.498969620376e-02 4.820584282909e-02 0.000000000000e+00
  3.783343933414e-02 2.600773455280e-02 0.000000000000e+00
  3.654280549521e-02 1.940264328769e-03 0.000000000000e+00
  3.125977442607e-02 -1.932471460253e-02 0.000000000000e+00
  2.258965406500e-02 -3.520719277721e-02 0.000000000000e+00
  1.143644236691e-02 -4.638445237165e-02 0.000000000000e+00
  -1.216905392058e-03 -5.616421867410e-02 0.000000000000e+00
  -1.448134565464e-02 -6.841274168660e-02 0.000000000000e+00
  -2.761001726514e-02 -8.512951107319e-02 0.000000000000e+00
  -3.991362315557e-02 -1.049031475226e-01 0.000000000000e+00
  -5.061599958908e-02 -1.229795926056e-01 0.000000000000e+00
  -5.876883865764e-02 -1.328430594579e-01 0.000000000000e+00
  -6.332266541641e-02 -1.285238239590e-01 0.000000000000e+00
  -6.336817266200e-02 -1.066344555187e-01 0.000000000000e+00
  -5.846239979263e-02 -6.741350868424e-02 0.000000000000e+00
  -4.889405921674e-02 -1.457810067692e-02 0.000000000000e+00
  -3.575560919206e-02 4.574982161560e-02 0.000000000000e+00
  -2.076958550959e-02 1.065526207914e-01 0.000000000000e+00
  -5.921396879788e-03 1.613800106313e-01 0.000000000000e+00
  6.971730935389e-03 2.054201355406e-01 0.000000000000e+00
  1.660998393356e-02 2.359928359572e-01 0.000000000000e+00
  2.237922555683e-02 2.524338115416e-01 0.000000000000e+00
  2.431955376005e-02 2.555028426577e-01 0.000000000000e+00
  2.294930674912e-02 2.466056533992e-01 0.000000000000e+00
  1.903642143785e-02 2.271814780230e-01 0.000000000000e+00
  1.340088177893e-02 1.984916037528e-01 0.000000000000e+00
  6.793586663124e-03 1.617788400625e-01 0.000000000000e+00
  -1.466843929449e-04 1.185276863132e-01 0.000000000000e+00
  -6.885483476848e-03 7.052934368150e-02 0.000000000000e+00
  -1.296958956171e-02 1.967209291408e-02 0.000000000000e+00
  -1.801718910344e-02 -3.234346685375e-02 0.000000000000e+00
  -2.173592876889e-02 -8.405948268611e-02 0.000000000000e+00
  -2.396623101157e-02 -1.339373609843e-01 0.000000000000e+00
  -2.472867440109e-02 -1.797987514993e-01 0.000000000000e+00
  -2.424026316898e-02 -2.183854811673e-01 0.000000000000e+00
  -2.286624894562e-02 -2.453899186136e-01 0.000000000000e+00
  -2.099933067564e-02 -2.561078407975e-01 0.000000000000e+00
  -1.889888638211e-02 -2.465861786367e-01 0.000000000000e+00
  -1.655565938319e-02 -2.149061092455e-01 0.000000000000e+00
  -1.364723800989e-02 -1.621514361293e-01 0.000000000000e+00
  -9.611481227308e-03 -9.270421646848e-02 0.000000000000e+00
  -3.810768523681e-03 -1.375112588023e-02 0.000000000000e+00
  4.275864396417e-03 6.583773003028e-02 0.000000000000e+00
  1.489273348383e-02 1.369192800875e-01 0.000000000000e+00
  2.790789411220e-02 1.914320572795e-01 0.000000000000e+00
  4.277155104734e-02 2.234620624892e-01 0.000000000000e+00
  5.852399338803e-02 2.299085727215e-01 0.000000000000e+00
  7.385969298419e-02 2.107086036301e-01 0.000000000000e+00
  8.726623193836e-02 1.686275646243e-01 0.000000000000e+00
  9.724391165972e-02 1.087024607334e-01 0.000000000000e+00
  1.025751509710e-01 3.751436841568e-02 0.000000000000e+00
  0.000000000000e+00 0.000000000000e+00 0.000000000000e+00
  0.000000000000e+00 0.000000000000e+00 0.000000000000e+00
  1.671379168368e-01 -3.130942425018e-02 0.000000000000e+00
  1.577257586251e-01 -9.062864116245e-02 0.000000000000e+00
  1.402444281647e-01 -1.402444281647e-01 0.000000000000e+00
  1.170486503616e-01 -1.744099718249e-01 0.000000000000e+00
  9.096601204903e-02 -1.886362243667e-01 0.000000000000e+00
  6.473627791853e-02 -1.803481984277e-01 0.000000000000e+00
  4.058879380912e-02 -1.494109506809e-01 0.000000000000e+00
  2.002742077408e-02 -9.835752101057e-02 0.000000000000e+00
  3.796599743292e-03 -3.224479940479e-02 0.000000000000e+00
  -8.043824476020e-03 4.185912008130e-02 0.000000000000e+00
  -1.599020544886e-02 1.157246813624e-01 0.000000000000e+00
  -2.092338772222e-02 1.810884159234e-01 0.000000000000e+00
  -2.388304481007e-02 2.309142087050e-01 0.000000000000e+00
  -2.580338546502e-02 2.605232500285e-01 0.000000000000e+00
  -2.727375544665e-02 2.682662721636e-01 0.000000000000e+00
  -2.840990254700e-02 2.554951845900e-01 0.000000000000e+00
  -2.888980810744e-02 2.258162298242e-01 0.000000000000e+00
  -2.813781966795e-02 1.838779886224e-01 0.000000000000e+00
  -2.557742639564e-02 1.341354444716e-01 0.000000000000e+00
  -2.085412120266e-02 8.003648692184e-02 0.000000000000e+00
  -1.395992084961e-02 2.387565939249e-02 0.000000000000e+00
  -5.244863962670e-03 -3.276971351518e-02 0.000000000000e+00
  4.653707013568e-03 -8.839236318077e-02 0.000000000000e+00
  1.491357511194e-02 -1.411309749121e-01 0.000000000000e+00
  2.461673135210e-02 -1.887880967886e-01 0.000000000000e+00
  3.280119648057e-02 -2.291645968212e-01 0.000000000000e+00
  3.847932009387e-02 -2.603742734639e-01 0.000000000000e+00
  4.065251849930e-02 -2.808881176700e-01 0.000000000000e+00
  3.836733713602e-02 -2.893548891924e-01 0.000000000000e+00
  3.085048849598e-02 -2.844887600471e-01 0.000000000000e+00
  1.772653760856e-02 -2.652973610159e-01 0.000000000000e+00
  -7.296823182642e-04 -2.316683137520e-01 0.000000000000e+00
  -2.340021034488e-02 -1.850518589475e-01 0.000000000000e+00
  -4.829891270995e-02 -1.288730224450e-01 0.000000000000e+00
  -7.278662669675e-02 -6.841502092418e-02 0.000000000000e+00
  -9.401713495560e-02 -1.012438721525e-02 0.000000000000e+00
  -1.095059163851e-01 3.953013774580e-02 0.000000000000e+00
  -1.176431015154e-01 7.540161607970e-02 0.000000000000e+00
  -1.179709964626e-01 9.489724091297e-02 0.000000000000e+00
  -1.111282705426e-01 9.873225569815e-02 0.000000000000e+00
  -9.849847139524e-02 9.085302896086e-02 0.000000000000e+00
  -8.172652360665e-02 7.734717388609e-02 0.000000000000e+00
  -6.231663352711e-02 6.451924003912e-02 0.000000000000e+00
  -4.146819526929e-02 5.674866003434e-02 0.000000000000e+00
  -2.017141838641e-02 5.501200728509e-02 0.000000000000e+00
  5.540762419097e-04 5.680296344144e-02 0.000000000000e+00
  1.946052208450e-02 5.758857801622e-02 0.000000000000e+00
  3.505876015396e-02 5.316628271823e-02 0.000000000000e+00
  4.582552438100e-02 4.177243543343e-02 0.000000000000e+00
  5.054808531371e-02 2.487483811371e-02 0.000000000000e+00
  4.865577148828e-02 6.256108533027e-03 0.000000000000e+00
  4.039474146776e-02 -1.009649775492e-02 0.000000000000e+00
  2.677146296697e-02 -2.214201093519e-02 0.000000000000e+00
  9.289781454610e-03 -3.081474129131e-02 0.000000000000e+00
  -1.040341888688e-02 -3.938738202815e-02 0.000000000000e+00
  -3.080795380720e-02 -5.152060357392e-02 0.000000000000e+00
  -5.067395155812e-02 -6.902698026228e-02 0.000000000000e+00
  -6.890056383607e-02 -9.047546058436e-02 0.000000000000e+00
  -8.433267486291e-02 -1.112727924600e-01 0.000000000000e+00
  -9.562871833768e-02 -1.251009773793e-01 0.000000000000e+00
  -1.013437411696e-01 -1.259970567032e-01 0.000000000000e+00
  -1.002535328452e-01 -1.102059240487e-01 0.000000000000e+00
  -9.180288068305e-02 -7.719846532758e-02 0.000000000000e+00
  -7.647436170725e-02 -2.969000368340e-02 0.000000000000e+00
  -5.589130351557e-02 2.714021634105e-02 0.000000000000e+00
  -3.257898682477e-02 8.686388565205e-02 0.000000000000e+00
  -9.452969944499e-03 1.430945402362e-01 0.000000000000e+00
  1.078887201773e-02 1.905706361444e-01 0.000000000000e+00
  2.616963394832e-02 2.258233204171e-01 0.000000000000e+00
  3.569142105854e-02 2.473122983443e-01 0.000000000000e+00
  3.931503265223e-02 2.550604160562e-01 0.000000000000e+00
  3.772980459700e-02 2.500035550660e-01 0.000000000000e+00
  3.203674903374e-02 2.333895172304e-01 0.000000000000e+00
  2.346305148427e-02 2.064928017536e-01 0.000000000000e+00
  1.317737559950e-02 1.706706130622e-01 0.000000000000e+00
  2.214768528280e-03 1.275387914409e-01 0.000000000000e+00
  -8.524589437338e-03 7.899639560336e-02 0.000000000000e+00
  -1.825480031230e-02 2.701935795203e-02 0.000000000000e+00
  -2.630556718061e-02 -2.659236548166e-02 0.000000000000e+00
  -3.216652049740e-02 -8.023089107596e-02 0.000000000000e+00
  -3.556663322726e-02 -1.321355376219e-01 0.000000000000e+00
  -3.655158531509e-02 -1.798531793844e-01 0.000000000000e+00
  -3.550307869185e-02 -2.198679711376e-01 0.000000000000e+00
  -3.305098314406e-02 -2.477335384145e-01 0.000000000000e+00
  -2.987045243301e-02 -2.588116699777e-01 0.000000000000e+00
  -2.641880188792e-02 -2.494344442952e-01 0.000000000000e+00
  -2.271562987331e-02 -2.181042426006e-01 0.000000000000e+00
  -1.826809772671e-02 -1.663092562941e-01 0.000000000000e+00
  -1.218405194620e-02 -9.866619886680e-02 0.000000000000e+00
  -3.431846374654e-03 -2.234206175709e-02 0.000000000000e+00
  8.850649109681e-03 5.405953750270e-02 0.000000000000e+00
  2.509318533716e-02 1.218380673002e-01 0.000000000000e+00
  4.512493212173e-02 1.734663626538e-01 0.000000000000e+00
  6.810259909267e-02 2.035864332087e-01 0.000000000000e+00
  9.252460987586e-02 2.096097488781e-01 0.000000000000e+00
  1.163401021368e-01 1.918562356164e-01 0.000000000000e+00
  1.371763863193e-01 1.532371095012e-01 0.000000000000e+00
  1.526880032086e-01 9.860361924587e-02 0.000000000000e+00
  1.609765408225e-01 3.399343297806e-02 0.000000000000e+00
  0.000000000000e+00 0.000000000000e+00 0.000000000000e+00
  0.000000000000e+00 0.000000000000e+00 0.000000000000e+00
  2.068752278142e-01 -2.591639472124e-02 0.000000000000e+00
  1.955093878323e-01 -7.524367249781e-02 0.000000000000e+00
  1.744099718249e-01 -1.170486503616e-01 0.000000000000e+00
  1.464442483172e-01 -1.464442483172e-01 0.000000000000e+00
  1.150639787216e-01 -1.591390399662e-01 0.000000000000e+00
  8.361995628212e-02 -1.521716262582e-01 0.000000000000e+00
  5.483340042131e-02 -1.246534828801e-01 0.000000000000e+00
  3.051422245478e-02 -7.823443780975e-02 0.000000000000e+00
  1.150536399229e-02 -1.712820311231e-02 0.000000000000e+00
  -2.224370038258e-03 5.231268203867e-02 0.000000000000e+00
  -1.140295521157e-02 1.223960855512e-01 0.000000000000e+00
  -1.721202463887e-02 1.851592634353e-01 0.000000000000e+00
  -2.097745582667e-02 2.335684494687e-01 0.000000000000e+00
  -2.382463542745e-02 2.626365295205e-01 0.000000000000e+00
  -2.638269321218e-02 2.701814204380e-01 0.000000000000e+00
  -2.864232017978e-02 2.569758103836e-01 0.000000000000e+00
  -3.002844050054e-02 2.262016299119e-01 0.000000000000e+00
  -2.966203746885e-02 1.823741970636e-01 0.000000000000e+00
  -2.670776041610e-02 1.301245657054e-01 0.000000000000e+00
  -2.067941696310e-02 7.329571704208e-02 0.000000000000e+00
  -1.161033208611e-02 1.465314404221e-02 0.000000000000e+00
  -6.238657342857e-05 -4.381020056453e-02 0.000000000000e+00