# vtk DataFile Version 3.0
Karman Output
ASCII
DATASET RECTILINEAR_GRID
DIMENSIONS 101 101 1
X_COORDINATES 101 float
   0.000000000000e+00   9.900990099010e-03   1.980198019802e-02   2.970297029703e-02   3.960396039604e-02   4.950495049505e-02   5.940594059406e-02   6.930693069307e-02   7.920792079208e-02   8.910891089109e-02   9.900990099010e-02   1.089108910891e-01   1.188118811881e-01   1.287128712871e-01   1.386138613861e-01   1.485148514851e-01   1.584158415842e-01   1.683168316832e-01   1.782178217822e-01   1.881188118812e-01   1.980198019802e-01   2.079207920792e-01   2.178217821782e-01   2.277227722772e-01   2.376237623762e-01   2.475247524752e-01   2.574257425743e-01   2.673267326733e-01   2.772277227723e-01   2.871287128713e-01   2.970297029703e-01   3.069306930693e-01   3.168316831683e-01   3.267326732673e-01   3.366336633663e-01   3.465346534653e-01   3.564356435644e-01   3.663366336634e-01   3.762376237624e-01   3.861386138614e-01   3.960396039604e-01   4.059405940594e-01   4.158415841584e-01   4.257425742574e-01   4.356435643564e-01   4.455445544554e-01   4.554455445545e-01   4.653465346535e-01   4.752475247525e-01   4.851485148515e-01   4.950495049505e-01   5.049504950495e-01   5.148514851485e-01   5.247524752475e-01   5.346534653465e-01   5.445544554455e-01   5.544554455446e-01   5.643564356436e-01   5.742574257426e-01   5.841584158416e-01   5.940594059406e-01   6.039603960396e-01   6.138613861386e-01   6.237623762376e-01   6.336633663366e-01   6.435643564356e-01   6.534653465347e-01   6.633663366337e-01   6.732673267327e-01   6.831683168317e-01   6.930693069307e-01   7.029702970297e-01   7.128712871287e-01   7.227722772277e-01   7.326732673267e-01   7.425742574257e-01   7.524752475248e-01   7.623762376238e-01   7.722772277228e-01   7.821782178218e-01   7.920792079208e-01   8.019801980198e-01   8.118811881188e-01   8.217821782178e-01   8.316831683168e-01   8.415841584158e-01   8.514851485149e-01   8.613861386139e-01   8.712871287129e-01   8.811881188119e-01   8.910891089109e-01   9.009900990099e-01   9.108910891089e-01   9.207920792079e-01   9.306930693069e-01   9.405940594059e-01   9.504950495050e-01   9.603960396040e-01   9.702970297030e-01   9.801980198020e-01   9.900990099010e-01
Y_COORDINATES 101 float
   0.000000000000e+00   9.900990099010e-03   1.980198019802e-02   2.970297029703e-02   3.960396039604e-02   4.950495049505e-02   5.940594059406e-02   6.930693069307e-02   7.920792079208e-02   8.910891089109e-02   9.900990099010e-02   1.089108910891e-01   1.188118811881e-01   1.287128712871e-01   1.386138613861e-01   1.485148514851e-01   1.584158415842e-01   1.683168316832e-01   1.782178217822e-01   1.881188118812e-01   1.980198019802e-01   2.079207920792e-01   2.178217821782e-01   2.277227722772e-01   2.376237623762e-01   2.475247524752e-01   2.574257425743e-01   2.673267326733e-01   2.772277227723e-01   2.871287128713e-01   2.970297029703e-01   3.069306930693e-01   3.168316831683e-01   3.267326732673e-01   3.366336633663e-01   3.465346534653e-01   3.564356435644e-01   3.663366336634e-01   3.762376237624e-01   3.861386138614e-01   3.960396039604e-01   4.059405940594e-01   4.158415841584e-01   4.257425742574e-01   4.356435643564e-01   4.455445544554e-01   4.554455445545e-01   4.653465346535e-01   4.752475247525e-01   4.851485148515e-01   4.950495049505e-01   5.049504950495e-01   5.148514851485e-01   5.247524752475e-01   5.346534653465e-01   5.445544554455e-01   5.544554455446e-01   5.643564356436e-01   5.742574257426e-01   5.841584158416e-01   5.940594059406e-01   6.039603960396e-01   6.138613861386e-01   6.237623762376e-01   6.336633663366e-01   6.435643564356e-01   6.534653465347e-01   6.633663366337e-01   6.732673267327e-01   6.831683168317e-01   6.930693069307e-01   7.029702970297e-01   7.128712871287e-01   7.227722772277e-01   7.326732673267e-01   7.425742574257e-01   7.524752475248e-01   7.623762376238e-01   7.722772277228e-01   7.821782178218e-01   7.920792079208e-01   8.019801980198e-01   8.118811881188e-01   8.217821782178e-01   8.316831683168e-01   8.415841584158e-01   8.514851485149e-01   8.613861386139e-01   8.712871287129e-01   8.811881188119e-01   8.910891089109e-01   9.009900990099e-01   9.108910891089e-01   9.207920792079e-01   9.306930693069e-01   9.405940594059e-01   9.504950495050e-01   9.603960396040e-01   9.702970297030e-01   9.801980198020e-01   9.900990099010e-01
Z_COORDINATES 1 float
  0.000000000000e+00
POINT_DATA 10201
VECTORS E_field float
  0.000000000000e+00 0.000000000000e+00 0.000000000000e+00
  0.000000000000e+00 0.000000000000e+00 0.000000000000e+00
  0.000000000000e+00 0.000000000000e+00 0.000000000000e+00
  0.000000000000e+00 0.000000000000e+00 0.000000000000e+00
  0.000000000000e+00 0.000000000000e+00 0.000000000000e+00
  0.000000000000e+00 0.000000000000e+00 0.000000000000e+00
  0.000000000000e+00 0.000000000000e+00 0.000000000000e+00
  0.000000000000e+00 0.000000000000e+00 0.000000000000e+00
  0.000000000000e+00 0.000000000000e+00 0.000000000000e+00
  0.000000000000e+00 0.000000000000e+00 0.000000000000e+00
  0.000000000000e+00 0.000000000000e+00 0.000000000000e+00
  0.000000000000e+00 0.000000000000e+00 0.000000000000e+00
  0.000000000000e+00 0.000000000000e+00 0.000000000000e+00
  0.000000000000e+00 0.000000000000e+00 0.000000000000e+00
  0.000000000000e+00 0.000000000000e+00 0.000000000000e+00
  0.000000000000e+00 0.000000000000e+00 0.000000000000e+00
  0.000000000000e+00 0.000000000000e+00 0.000000000000e+00
  0.000000000000e+00 0.000000000000e+00 0.000000000000e+00
  0.000000000000e+00 0.000000000000e+00 0.000000000000e+00
  0.000000000000e+00 0.000000000000e+00 0.000000000000e+00
  0.000000000000e+00 0.000000000000e+00 0.000000000000e+00
  0.000000000000e+00 0.000000000000e+00 0.000000000000e+00
  0.000000000000e+00 0.000000000000e+00 0.000000000000e+00
  0.000000000000e+00 0.000000000000e+00 0.000000000000e+00
  0.000000000000e+00 0.000000000000e+00 0.000000000000e+00
  0.000000000000e+00 0.000000000000e+00 0.000000000000e+00
  0.000000000000e+00 0.000000000000e+00 0.000000000000e+00
  0.000000000000e+00 0.000000000000e+00 0.000000000000e+00
  0.000000000000e+00 0.000000000000e+00 0.000000000000e+00
  0.000000000000e+00 0.000000000000e+00 0.000000000000e+00
  0.000000000000e+00 0.000000000000e+00 0.000000000000e+00
  0.000000000000e+00 0.000000000000e+00 0.000000000000e+00
  0.000000000000e+00 0.000000000000e+00 0.000000000000e+00
  0.000000000000e+00 0.000000000000e+00 0.000000000000e+00
  0.000000000000e+00 0.000000000000e+00 0.000000000000e+00
  0.000000000000e+00 0.000000000000e+00 0.000000000000e+00
  0.000000000000e+00 0.000000000000e+00 0.000000000000e+00
  0.000000000000e+00 0.000000000000e+00 0.000000000000e+00
  0.000000000000e+00 0.000000000000e+00 0.000000000000e+00
  0.000000000000e+00 0.000000000000e+00 0.000000000000e+00
  0.000000000000e+00 0.000000000000e+00 0.000000000000e+00
  0.000000000000e+00 0.000000000000e+00 0.000000000000e+00
  0.000000000000e+00 0.000000000000e+00 0.000000000000e+00
  0.000000000000e+00 0.000000000000e+00 0.000000000000e+00
  0.000000000000e+00 0.000000000000e+00 0.000000000000e+00
  0.000000000000e+00 0.000000000000e+00 0.000000000000e+00
  0.000000000000e+00 0.000000000000e+00 0.000000000000e+00
  0.000000000000e+00 0.000000000000e+00 0.000000000000e+00
  0.000000000000e+00 0.000000000000e+00 0.000000000000e+00
  0.000000000000e+00 0.000000000000e+00 0.000000000000e+00
  0.000000000000e+00 0.000000000000e+00 0.000000000000e+00
  0.000000000000e+00 0.000000000000e+00 0.000000000000e+00
  0.000000000000e+00 0.000000000000e+00 0.000000000000e+00
  0.000000000000e+00 0.000000000000e+00 0.000000000000e+00
  0.000000000000e+00 0.000000000000e+00 0.000000000000e+00
  0.000000000000e+00 0.000000000000e+00 0.000000000000e+00
  0.000000000000e+00 0.000000000000e+00 0.000000000000e+00
  0.000000000000e+00 0.000000000000e+00 0.000000000000e+00
  0.000000000000e+00 0.000000000000e+00 0.000000000000e+00
  0.000000000000e+00 0.000000000000e+00 0.000000000000e+00
  0.000000000000e+00 0.000000000000e+00 0.000000000000e+00
  0.000000000000e+00 0.000000000000e+00 0.000000000000e+00
  0.000000000000e+00 0.000000000000e+00 0.000000000000e+00
  0.000000000000e+00 0.000000000000e+00 0.000000000000e+00
  0.000000000000e+00 0.000000000000e+00 0.000000000000e+00
  0.000000000000e+00 0.000000000000e+00 0.000000000000e+00
  0.000000000000e+00 0.000000000000e+00 0.000000000000e+00
  0.000000000000e+00 0.000000000000e+00 0.000000000000e+00
  0.000000000000e+00 0.000000000000e+00 0.000000000000e+00
  0.000000000000e+00 0.000000000000e+00 0.000000000000e+00
  0.000000000000e+00 0.000000000000e+00 0.000000000000e+00
  0.000000000000e+00 0.000000000000e+00 0.000000000000e+00
  0.000000000000e+00 0.000000000000e+00 0.000000000000e+00
  0.000000000000e+00 0.000000000000e+00 0.000000000000e+00
  0.000000000000e+00 0.000000000000e+00 0.000000000000e+00
  0.000000000000e+00 0.000000000000e+00 0.000000000000e+00
  0.000000000000e+00 0.000000000000e+00 0.000000000000e+00
  0.000000000000e+00 0.000000000000e+00 0.000000000000e+00
  0.000000000000e+00 0.000000000000e+00 0.000000000000e+00
  0.000000000000e+00 0.000000000000e+00 0.000000000000e+00
  0.000000000000e+00 0.000000000000e+00 0.000000000000e+00
  0.000000000000e+00 0.000000000000e+00 0.000000000000e+00
  0.000000000000e+00 0.000000000000e+00 0.000000000000e+00
  0.000000000000e+00 0.000000000000e+00 0.000000000000e+00
  0.000000000000e+00 0.000000000000e+00 0.000000000000e+00
  0.000000000000e+00 0.000000000000e+00 0.000000000000e+00
  0.000000000000e+00 0.000000000000e+00 0.000000000000e+00
  0.000000000000e+00 0.000000000000e+00 0.000000000000e+00
  0.000000000000e+00 0.000000000000e+00 0.000000000000e+00
  0.000000000000e+00 0.000000000000e+00 0.000000000000e+00
  0.000000000000e+00 0.000000000000e+00 0.000000000000e+00
  0.000000000000e+00 0.000000000000e+00 0.000000000000e+00
  0.000000000000e+00 0.000000000000e+00 0.000000000000e+00
  0.000000000000e+00 0.000000000000e+00 0.000000000000e+00
  0.000000000000e+00 0.000000000000e+00 0.000000000000e+00
  0.000000000000e+00 0.000000000000e+00 0.000000000000e+00
  0.000000000000e+00 0.000000000000e+00 0.000000000000e+00
  0.000000000000e+00 0.000000000000e+00 0.000000000000e+00
  0.000000000000e+00 0.000000000000e+00 0.000000000000e+00
  0.000000000000e+00 0.000000000000e+00 0.000000000000e+00
  0.000000000000e+00 0.000000000000e+00 0.000000000000e+00
  0.000000000000e+00 0.000000000000e+00 0.000000000000e+00
  4.671802879438e-02 -4.671802879438e-02 0.000000000000e+00
  4.325423208285e-02 -1.364756632009e-01 0.000000000000e+00
  3.663627855395e-02 -2.156745996935e-01 0.000000000000e+00
  2.745905380056e-02 -2.787773546621e-01 0.000000000000e+00
  1.655017995649e-02 -3.222151883700e-01 0.000000000000e+00
  4.886565195820e-03 -3.446760164808e-01 0.000000000000e+00
  -6.515887112737e-03 -3.470313573294e-01 0.000000000000e+00
  -1.672518611646e-02 -3.319532401817e-01 0.000000000000e+00
  -2.500661523083e-02 -3.033265537987e-01 0.000000000000e+00
  -3.090329433221e-02 -2.655865437521e-01 0.000000000000e+00
  -3.426773702349e-02 -2.231036363607e-01 0.000000000000e+00
  -3.524075880106e-02 -1.797056373200e-01 0.000000000000e+00
  -3.418724328467e-02 -1.383828834108e-01 0.000000000000e+00
  -3.160735386060e-02 -1.011780536455e-01 0.000000000000e+00
  -2.804437519674e-02 -6.922894854608e-02 0.000000000000e+00
  -2.400687190149e-02 -4.291444108099e-02 0.000000000000e+00
  -1.991565543581e-02 -2.205073583427e-02 0.000000000000e+00
  -1.607814631459e-02 -6.093198423683e-03 0.000000000000e+00
  -1.268646393151e-02 5.687000923673e-03 0.000000000000e+00
  -9.832098189399e-03 1.406729471836e-02 0.000000000000e+00
  -7.529265777279e-03 1.978265714438e-02 0.000000000000e+00
  -5.740243988551e-03 2.347425298516e-02 0.000000000000e+00
  -4.398100773342e-03 2.566880408933e-02 0.000000000000e+00
  -3.424452721166e-03 2.677876607867e-02 0.000000000000e+00
  -2.741661452098e-03 2.711454564754e-02 0.000000000000e+00
  -2.280027847040e-03 2.690207093920e-02 0.000000000000e+00
  -1.981098796172e-03 2.630125126372e-02 0.000000000000e+00
  -1.798315802125e-03 2.542276756853e-02 0.000000000000e+00
  -1.696087204983e-03 2.434204110132e-02 0.000000000000e+00
  -1.648105705942e-03 2.311013618865e-02 0.000000000000e+00
  -1.635461164911e-03 2.176185703200e-02 0.000000000000e+00
  -1.644869291818e-03 2.032151750316e-02 0.000000000000e+00
  -1.667168852855e-03 1.880690618425e-02 0.000000000000e+00
  -1.696131270482e-03 1.723191949312e-02 0.000000000000e+00
  -1.727565115466e-03 1.560824902470e-02 0.000000000000e+00
  -1.758669743946e-03 1.394641751858e-02 0.000000000000e+00
  -1.787584633360e-03 1.225637703405e-02 0.000000000000e+00
  -1.813084357024e-03 1.054781862642e-02 0.000000000000e+00
  -1.834377327422e-03 8.830295122234e-03 0.000000000000e+00
  -1.850975732449e-03 7.113225006007e-03 0.000000000000e+00
  -1.862612605015e-03 5.405822749267e-03 0.000000000000e+00
  -1.869188963379e-03 3.716986099099e-03 0.000000000000e+00
  -1.870739329312e-03 2.055161406230e-03 0.000000000000e+00
  -1.867407864432e-03 4.282021261978e-04 0.000000000000e+00
  -1.859430152621e-03 -1.156768170253e-03 0.000000000000e+00
  -1.847117586857e-03 -2.693479500163e-03 0.000000000000e+00
  -1.830842634189e-03 -4.176619015439e-03 0.000000000000e+00
  -1.811024137753e-03 -5.601909139581e-03 0.000000000000e+00
  -1.788112401876e-03 -6.966156558466e-03 0.000000000000e+00
  -1.762574186069e-03 -8.267269840180e-03 0.000000000000e+00
  -1.734877966287e-03 -9.504244976284e-03 0.000000000000e+00
  -1.705479947963e-03 -1.067711963016e-02 0.000000000000e+00
  -1.674811363391e-03 -1.178689828937e-02 0.000000000000e+00
  -1.643267578975e-03 -1.283545177872e-02 0.000000000000e+00
  -1.611199496935e-03 -1.382539562857e-02 0.000000000000e+00
  -1.578907684665e-03 -1.475995254453e-02 0.000000000000e+00
  -1.546639631671e-03 -1.564280463624e-02 0.000000000000e+00
  -1.514590556004e-03 -1.647794109054e-02 0.000000000000e+00
  -1.482908309972e-03 -1.726950657497e-02 0.000000000000e+00
  -1.451703238677e-03 -1.802165477990e-02 0.000000000000e+00
  -1.421064422805e-03 -1.873841006202e-02 0.000000000000e+00
  -1.391084725470e-03 -1.942353797949e-02 0.000000000000e+00
  -1.361898646748e-03 -2.008042232111e-02 0.000000000000e+00
  -1.333739408575e-03 -2.071194154013e-02 0.000000000000e+00
  -1.307025234303e-03 -2.132033051112e-02 0.000000000000e+00
  -1.282489751486e-03 -2.190700301518e-02 0.000000000000e+00
  -1.261378057397e-03 -2.247229454266e-02 0.000000000000e+00
  -1.245738216305e-03 -2.301506144864e-02 0.000000000000e+00
  -1.238847219002e-03 -2.353203814089e-02 0.000000000000e+00
  -1.245819108084e-03 -2.401680542960e-02 0.000000000000e+00
  -1.274447750049e-03 -2.445815753652e-02 0.000000000000e+00
  -1.336331859725e-03 -2.483757187861e-02 0.000000000000e+00
  -1.448306484323e-03 -2.512538918845e-02 0.000000000000e+00
  -1.634151136551e-03 -2.527521635438e-02 0.000000000000e+00
  -1.926445972823e-03 -2.521600151815e-02 0.000000000000e+00
  -2.368291081637e-03 -2.484125527738e-02 0.000000000000e+00
  -3.014385474336e-03 -2.399508821464e-02 0.000000000000e+00
  -3.930695863453e-03 -2.245521908199e-02 0.000000000000e+00
  -5.191676891571e-03 -1.991401446914e-02 0.000000000000e+00
  -6.873824533449e-03 -1.596007036208e-02 0.000000000000e+00
  -9.044391426567e-03 -1.006488293339e-02 0.000000000000e+00
  -1.174453826143e-02 -1.581653249837e-03 0.000000000000e+00
  -1.496719849354e-02 1.023418713262e-02 0.000000000000e+00
  -1.863156346071e-02 2.617136782809e-02 0.000000000000e+00
  -2.255822913953e-02 4.696496766797e-02 0.000000000000e+00
  -2.645128119761e-02 7.314710147319e-02 0.000000000000e+00
  -2.989522438757e-02 1.048477213890e-01 0.000000000000e+00
  -3.237477477903e-02 1.415619012871e-01 0.000000000000e+00
  -3.332326998309e-02 1.819195756360e-01 0.000000000000e+00
  -3.220038515262e-02 2.235144405216e-01 0.000000000000e+00
  -2.859236205315e-02 2.628637016918e-01 0.000000000000e+00
  -2.231949912586e-02 2.955703593801e-01 0.000000000000e+00
  -1.352857578235e-02 3.167359916442e-01 0.000000000000e+00
  -2.744946741997e-03 3.216207821469e-01 0.000000000000e+00
  9.137513581799e-03 3.064749494340e-01 0.000000000000e+00
  2.093987801860e-02 2.693901588057e-01 0.000000000000e+00
  3.135013735921e-02 2.109685839250e-01 0.000000000000e+00
  3.912078065284e-02 1.346084776559e-01 0.000000000000e+00
  4.327451537348e-02 4.627240946328e-02 0.000000000000e+00
  0.000000000000e+00 0.000000000000e+00 0.000000000000e+00
  0.000000000000e+00 0.000000000000e+00 0.000000000000e+00
  1.364756632009e-01 -4.325423208285e-02 0.000000000000e+00
  1.263997374451e-01 -1.263997374451e-01 0.000000000000e+00
  1.071728104856e-01 -1.999056449609e-01 0.000000000000e+00
  8.055749489773e-02 -2.587537690535e-01 0.000000000000e+00
  4.897755471243e-02 -2.997499599493e-01 0.000000000000e+00
  1.525659739438e-02 -3.217566728228e-01 0.000000000000e+00
  -1.770608427312e-02 -3.255855670113e-01 0.000000000000e+00
  -4.727884537398e-02 -3.136169703953e-01 0.000000000000e+00
  -7.140175425458e-02 -2.892584855902e-01 0.000000000000e+00
  -8.879457150683e-02 -2.563651156070e-01 0.000000000000e+00
  -9.903175868574e-02 -2.187234346356e-01 0.000000000000e+00
  -1.024793004494e-01 -1.796652755039e-01 0.000000000000e+00
  -1.001200832139e-01 -1.418359779788e-01 0.000000000000e+00
  -9.331618415468e-02 -1.071087475607e-01 0.000000000000e+00
  -8.356226349018e-02 -7.661515395916e-02 0.000000000000e+00
  -7.227535556436e-02 -5.085264688899e-02 0.000000000000e+00
  -6.064842696241e-02 -2.983067509391e-02 0.000000000000e+00
  -4.957526637053e-02 -1.322392887714e-02 0.000000000000e+00
  -3.963832401316e-02 -5.108933633157e-04 0.000000000000e+00
  -3.114189020984e-02 8.914389459923e-03 0.000000000000e+00
  -2.417053636654e-02 1.566137614740e-02 0.000000000000e+00
  -1.865525143199e-02 2.029122725887e-02 0.000000000000e+00
  -1.443478498227e-02 2.328922015070e-02 0.000000000000e+00
  -1.130524589502e-02 2.505516287788e-02 0.000000000000e+00
  -9.055640070659e-03 2.590575175490e-02 0.000000000000e+00
  -7.490182232906e-03 2.608377338903e-02 0.000000000000e+00
  -6.439890847157e-03 2.577032837727e-02 0.000000000000e+00
  -5.766496460275e-03 2.509751307406e-02 0.000000000000e+00
  -5.361482340164e-03 2.416005287855e-02 0.000000000000e+00
  -5.142506685012e-03 2.302516725726e-02 0.000000000000e+00
  -5.048795982155e-03 2.174047071960e-02 0.000000000000e+00
  -5.036505594526e-03 2.034002155505e-02 0.000000000000e+00
  -5.074583777374e-03 1.884877987668e-02 0.000000000000e+00
  -5.141358749172e-03 1.728578319098e-02 0.000000000000e+00
  -5.221874580539e-03 1.566633500482e-02 0.000000000000e+00
  -5.305899208479e-03 1.400346079783e-02 0.000000000000e+00
  -5.386486195039e-03 1.230883563585e-02 0.000000000000e+00
  -5.458966175957e-03 1.059333973754e-02 0.000000000000e+00
  -5.520256681786e-03 8.867357500397e-03 0.000000000000e+00
  -5.568398932950e-03 7.140903303492e-03 0.000000000000e+00
  -5.602250927994e-03 5.423633347016e-03 0.000000000000e+00
  -5.621284555437e-03 3.724785524471e-03 0.000000000000e+00
  -5.625449453983e-03 2.053077293224e-03 0.000000000000e+00
  -5.615077891658e-03 4.165832702607e-04 0.000000000000e+00
  -5.590813489162e-03 -1.177391361643e-03 0.000000000000e+00
  -5.553552781254e-03 -2.722429510054e-03 0.000000000000e+00
  -5.504392971309e-03 -4.213103695221e-03 0.000000000000e+00
  -5.444582269357e-03 -5.645053590674e-03 0.000000000000e+00
  -5.375471281364e-03 -7.015034775479e-03 0.000000000000e+00
  -5.298465304991e-03 -8.320935777052e-03 0.000000000000e+00
  -5.214978273921e-03 -9.561762273601e-03 0.000000000000e+00
  -5.126389613384e-03 -1.073758901854e-02 0.000000000000e+00
  -5.034005523753e-03 -1.184948160476e-02 0.000000000000e+00
  -4.939026279126e-03 -1.289939154141e-02 0.000000000000e+00
  -4.842521091540e-03 -1.389002919885e-02 0.000000000000e+00
  -4.745412032674e-03 -1.482471991683e-02 0.000000000000e+00
  -4.648468523721e-03 -1.570724889920e-02 0.000000000000e+00
  -4.552314127099e-03 -1.654170036965e-02 0.000000000000e+00
  -4.457447966990e-03 -1.733229576425e-02 0.000000000000e+00
  -4.364284290912e-03 -1.808323439035e-02 0.000000000000e+00
  -4.273215758206e-03 -1.879853784185e-02 0.000000000000e+00
  -4.184709394333e-03 -1.948189629240e-02 0.000000000000e+00
  -4.099449281255e-03 -2.013651022267e-02 0.000000000000e+00
  -4.018547561924e-03 -2.076491461160e-02 0.000000000000e+00
  -3.943855862767e-03 -2.136876332320e-02 0.000000000000e+00
  -3.878423319474e-03 -2.194853823550e-02 0.000000000000e+00
  -3.827165161035e-03 -2.250312917859e-02 0.000000000000e+00
  -3.797826456854e-03 -2.302920536008e-02 0.000000000000e+00
  -3.802346557034e-03 -2.352026512770e-02 0.000000000000e+00
  -3.858745323785e-03 -2.396520778753e-02 0.000000000000e+00
  -3.993652242737e-03 -2.434621961796e-02 0.000000000000e+00
  -4.245567488785e-03 -2.463571044158e-02 0.000000000000e+00
  -4.668856325720e-03 -2.479198716400e-02 0.000000000000e+00
  -5.338304645750e-03 -2.475332540659e-02 0.000000000000e+00
  -6.353771597360e-03 -2.443013067807e-02 0.000000000000e+00
  -7.844040636568e-03 -2.369501196945e-02 0.000000000000e+00
  -9.968394414907e-03 -2.237088335154e-02 0.000000000000e+00
  -1.291377515903e-02 -2.021773281185e-02 0.000000000000e+00
  -1.688477664402e-02 -1.691951822617e-02 0.000000000000e+00
  -2.208338990910e-02 -1.207380569808e-02 0.000000000000e+00
  -2.867574411870e-02 -5.188226494671e-03 0.000000000000e+00
  -3.674445915025e-02 4.310552177855e-03 0.000000000000e+00
  -4.622801455970e-02 1.704819734649e-02 0.000000000000e+00
  -5.685285070574e-02 3.364655872743e-02 0.000000000000e+00
  -6.806938166342e-02 5.463297340512e-02 0.000000000000e+00
  -7.900866871321e-02 8.031143484392e-02 0.000000000000e+00
  -8.848041444885e-02 1.105990769439e-01 0.000000000000e+00
  -9.503295517173e-02 1.448426368466e-01 0.000000000000e+00
  -9.708993438447e-02 1.816443144933e-01 0.000000000000e+00
  -9.316520455849e-02 2.187420870079e-01 0.000000000000e+00
  -8.213802598251e-02 2.530008535302e-01 0.000000000000e+00
  -6.354817559960e-02 2.805704942315e-01 0.000000000000e+00
  -3.785101970523e-02 2.972477775548e-01 0.000000000000e+00
  -6.563257021652e-03 2.990376045123e-01 0.000000000000e+00
  2.776247063180e-02 2.828499390913e-01 0.000000000000e+00
  6.176843506775e-02 2.472068402756e-01 0.000000000000e+00
  9.171792724073e-02 1.927921509415e-01 0.000000000000e+00
  1.140546475330e-01 1.226775470535e-01 0.000000000000e+00
  1.259896119566e-01 4.211464092137e-02 0.000000000000e+00
  0.000000000000e+00 0.000000000000e+00 0.000000000000e+00
  0.000000000000e+00 0.000000000000e+00 0.000000000000e+00
  2.156745996935e-01 -3.663627855395e-02 0.000000000000e+00
  1.999056449609e-01 -1.071728104856e-01 0.000000000000e+00
  1.698822261837e-01 -1.698822261837e-01 0.000000000000e+00
  1.284513209262e-01 -2.207309669854e-01 0.000000000000e+00
  7.944953557764e-02 -2.571910364835e-01 0.000000000000e+00
  2.724204385918e-02 -2.783871472521e-01 0.000000000000e+00
  -2.379433533798e-02 -2.849560317174e-01 0.000000000000e+00
  -6.976882955863e-02 -2.786992503677e-01 0.000000000000e+00
  -1.076802001086e-01 -2.621419261873e-01 0.000000000000e+00
  -1.356672029171e-01 -2.381018549491e-01 0.000000000000e+00
  -1.530771842220e-01 -2.093395268096e-01 0.000000000000e+00
  -1.603602629154e-01 -1.783185628729e-01 0.000000000000e+00
  -1.588290945313e-01 -1.470730762294e-01 0.000000000000e+00
  -1.503444326094e-01 -1.171602102913e-01 0.000000000000e+00
  -1.369906427332e-01 -8.967140176932e-02 0.000000000000e+00
  -1.207945151035e-01 -6.527943463436e-02 0.000000000000e+00
  -1.035207551758e-01 -4.430457587813e-02 0.000000000000e+00
  -8.655538524030e-02 -2.678855862032e-02 0.000000000000e+00
  -7.086978474438e-02 -1.256880647343e-02 0.000000000000e+00
  -5.704645105933e-02 -1.347464918333e-03 0.000000000000e+00
  -4.534324175522e-02 7.248667378249e-03 0.000000000000e+00
  -3.577435963551e-02 1.361976897377e-02 0.000000000000e+00
  -2.819129485814e-02 1.815714720872e-02 0.000000000000e+00
  -2.235305817471e-02 2.121946004918e-02 0.000000000000e+00
  -1.798066776590e-02 2.311945835042e-02 0.000000000000e+00
  -1.479510792071e-02 2.411904911056e-02 0.000000000000e+00
  -1.254063537329e-02 2.443028872260e-02 0.000000000000e+00
  -1.099656456775e-02 2.422008753635e-02 0.000000000000e+00
  -9.980902657610e-03 2.361680238613e-02 0.000000000000e+00
  -9.348835781749e-03 2.271737521895e-02 0.000000000000e+00
  -8.988424195106e-03 2.159414046905e-02 0.000000000000e+00
  -8.815173724047e-03 2.030081094830e-02 0.000000000000e+00
  -8.766543822805e-03 1.887743876791e-02 0.000000000000e+00
  -8.796981658143e-03 1.735433711256e-02 0.000000000000e+00
  -8.873742228999e-03 1.575505749610e-02 0.000000000000e+00
  -8.973546339988e-03 1.409856706449e-02 0.000000000000e+00
  -9.080011989893e-03 1.240078203807e-02 0.000000000000e+00
  -9.181741575782e-03 1.067560295482e-02 0.000000000000e+00
  -9.270933423972e-03 8.935576718818e-03 0.000000000000e+00
  -9.342394005619e-03 7.192287038601e-03 0.000000000000e+00
  -9.392845052272e-03 5.456552823606e-03 0.000000000000e+00
  -9.420440528963e-03 3.738495379952e-03 0.000000000000e+00
  -9.424428190292e-03 2.047520288190e-03 0.000000000000e+00
  -9.404907495798e-03 3.922483699289e-04 0.000000000000e+00
  -9.362649497640e-03 -1.219578459941e-03 0.000000000000e+00
  -9.298955089451e-03 -2.781197095130e-03 0.000000000000e+00
  -9.215536151232e-03 -4.286914423648e-03 0.000000000000e+00
  -9.114410139654e-03 -5.732179174202e-03 0.000000000000e+00
  -8.997803017905e-03 -7.113626970090e-03 0.000000000000e+00
  -8.868058480739e-03 -8.429093867642e-03 0.000000000000e+00
  -8.727553516294e-03 -9.677596077727e-03 0.000000000000e+00
  -8.578621699442e-03 -1.085927572960e-02 0.000000000000e+00
  -8.423486430000e-03 -1.197531442502e-02 0.000000000000e+00
  -8.264206786790e-03 -1.302781789708e-02 0.000000000000e+00
  -8.102638933652e-03 -1.401967625807e-02 0.000000000000e+00
  -7.940416265828e-03 -1.495440500858e-02 0.000000000000e+00
  -7.778951931095e-03 -1.583597208898e-02 0.000000000000e+00
  -7.619468247907e-03 -1.666861567896e-02 0.000000000000e+00
  -7.463059178367e-03 -1.745665606114e-02 0.000000000000e+00
  -7.310794774209e-03 -1.820430249285e-02 0.000000000000e+00
  -7.163880858895e-03 -1.891545244367e-02 0.000000000000e+00
  -7.023893676940e-03 -1.959347543193e-02 0.000000000000e+00
  -6.893118419245e-03 -2.024096659583e-02 0.000000000000e+00
  -6.775032967472e-03 -2.085944550766e-02 0.000000000000e+00
  -6.674994216051e-03 -2.144896294238e-02 0.000000000000e+00
  -6.601203697034e-03 -2.200756171926e-02 0.000000000000e+00
  -6.566050616763e-03 -2.253051695789e-02 0.000000000000e+00
  -6.587950550014e-03 -2.300925636562e-02 0.000000000000e+00
  -6.693810600886e-03 -2.342983397869e-02 0.000000000000e+00
  -6.922246070116e-03 -2.377080470451e-02 0.000000000000e+00
  -7.327633006043e-03 -2.400032884806e-02 0.000000000000e+00
  -7.984982289889e-03 -2.407233668251e-02 0.000000000000e+00
  -8.995435042730e-03 -2.392161933371e-02 0.000000000000e+00
  -1.049187485036e-02 -2.345780510940e-02 0.000000000000e+00
  -1.264370454336e-02 -2.255835433073e-02 0.000000000000e+00
  -1.565924022183e-02 -2.106098359915e-02 0.000000000000e+00
  -1.978347234799e-02 -1.875632581735e-02 0.000000000000e+00
  -2.528824289946e-02 -1.538213905044e-02 0.000000000000e+00
  -3.245139440812e-02 -1.062095899394e-02 0.000000000000e+00
  -4.152147347765e-02 -4.103672595693e-03 0.000000000000e+00
  -5.266551502133e-02 4.578036156217e-03 0.000000000000e+00
  -6.589970128909e-02 1.584719082627e-02 0.000000000000e+00
  -8.100656135489e-02 3.010197417332e-02 0.000000000000e+00
  -9.744781131303e-02 4.765886800478e-02 0.000000000000e+00
  -1.142883644667e-01 6.867774823910e-02 0.000000000000e+00
  -1.301532174462e-01 9.307080003929e-02 0.000000000000e+00
  -1.432429119736e-01 1.204011520115e-01 0.000000000000e+00
  -1.514326892864e-01 1.497828798148e-01 0.000000000000e+00
  -1.524729340654e-01 1.798012955169e-01 0.000000000000e+00
  -1.442924937326e-01 2.084799358255e-01 0.000000000000e+00
  -1.253822061093e-01 2.333255385132e-01 0.000000000000e+00
  -9.520655726787e-02 2.514803100241e-01 0.000000000000e+00
  -5.456340691052e-02 2.599976555105e-01 0.000000000000e+00
  -5.794874943285e-03 2.562314319059e-01 0.000000000000e+00
  4.724252408116e-02 2.382929850199e-01 0.000000000000e+00
  9.950605009991e-02 2.054943038923e-01 0.000000000000e+00
  1.453877780174e-01 1.586734672343e-01 0.000000000000e+00
  1.795440695006e-01 1.003032189852e-01 0.000000000000e+00
  1.977774178084e-01 3.432065625819e-02 0.000000000000e+00
  0.000000000000e+00 0.000000000000e+00 0.000000000000e+00
  0.000000000000e+00 0.000000000000e+00 0.000000000000e+00
  2.787773546621e-01 -2.745905380056e-02 0.000000000000e+00
  2.587537690535e-01 -8.055749489773e-02 0.000000000000e+00
  2.207309669854e-01 -1.284513209262e-01 0.000000000000e+00
  1.684560783940e-01 -1.684560783940e-01 0.000000000000e+00
  1.068601521826e-01 -1.988682135149e-01 0.000000000000e+00
  4.139122946137e-02 -2.190335557811e-01 0.000000000000e+00
  -2.265762770619e-02 -2.292243868236e-01 0.000000000000e+00
  -8.071857924648e-02 -2.303954495005e-01 0.000000000000e+00
  -1.293468826032e-01 -2.239060531478e-01 0.000000000000e+00
  -1.664180855510e-01 -2.112795222322e-01 0.000000000000e+00
  -1.911335678806e-01 -1.940363958920e-01 0.000000000000e+00
  -2.038699414704e-01 -1.736022415073e-01 0.000000000000e+00
  -2.059222746737e-01 -1.512682327758e-01 0.000000000000e+00
  -1.991950219437e-01 -1.281769683968e-01 0.000000000000e+00
  -1.858902120061e-01 -1.053132434776e-01 0.000000000000e+00
  -1.682322490691e-01 -8.349168349278e-02 0.000000000000e+00
  -1.482550518138e-01 -6.334328420264e-02 0.000000000000e+00
  -1.276627589370e-01 -4.530751310817e-02 0.000000000000e+00
  -1.077623010266e-01 -2.963591039190e-02 0.000000000000e+00