# vtk DataFile Version 3.0
Karman Output
ASCII
DATASET RECTILINEAR_GRID
DIMENSIONS 101 101 1
X_COORDINATES 101 float
   0.000000000000e+00   9.900990099010e-03   1.980198019802e-02   2.970297029703e-02   3.960396039604e-02   4.950495049505e-02   5.940594059406e-02   6.930693069307e-02   7.920792079208e-02   8.910891089109e-02   9.900990099010e-02   1.089108910891e-01   1.188118811881e-01   1.287128712871e-01   1.386138613861e-01   1.485148514851e-01   1.584158415842e-01   1.683168316832e-01   1.782178217822e-01   1.881188118812e-01   1.980198019802e-01   2.079207920792e-01   2.178217821782e-01   2.277227722772e-01   2.376237623762e-01   2.475247524752e-01   2.574257425743e-01   2.673267326733e-01   2.772277227723e-01   2.871287128713e-01   2.970297029703e-01   3.069306930693e-01   3.168316831683e-01   3.267326732673e-01   3.366336633663e-01   3.465346534653e-01   3.564356435644e-01   3.663366336634e-01   3.762376237624e-01   3.861386138614e-01   3.960396039604e-01   4.059405940594e-01   4.158415841584e-01   4.257425742574e-01   4.356435643564e-01   4.455445544554e-01   4.554455445545e-01   4.653465346535e-01   4.752475247525e-01   4.851485148515e-01   4.950495049505e-01   5.049504950495e-01   5.148514851485e-01   5.247524752475e-01   5.346534653465e-01   5.445544554455e-01   5.544554455446e-01   5.643564356436e-01   5.742574257426e-01   5.841584158416e-01   5.940594059406e-01   6.039603960396e-01   6.138613861386e-01   6.237623762376e-01   6.336633663366e-01   6.435643564356e-01   6.534653465347e-01   6.633663366337e-01   6.732673267327e-01   6.831683168317e-01   6.930693069307e-01   7.029702970297e-01   7.128712871287e-01   7.227722772277e-01   7.326732673267e-01   7.425742574257e-01   7.524752475248e-01   7.623762376238e-01   7.722772277228e-01   7.821782178218e-01   7.920792079208e-01   8.019801980198e-01   8.118811881188e-01   8.217821782178e-01   8.316831683168e-01   8.415841584158e-01   8.514851485149e-01   8.613861386139e-01   8.712871287129e-01   8.811881188119e-01   8.910891089109e-01   9.009900990099e-01   9.108910891089e-01   9.207920792079e-01   9.306930693069e-01   9.405940594059e-01   9.504950495050e-01   9.603960396040e-01   9.702970297030e-01   9.801980198020e-01   9.900990099010e-01
Y_COORDINATES 101 float
   0.000000000000e+00   9.900990099010e-03   1.980198019802e-02   2.970297029703e-02   3.960396039604e-02   4.950495049505e-02   5.940594059406e-02   6.930693069307e-02   7.920792079208e-02   8.910891089109e-02   9.900990099010e-02   1.089108910891e-01   1.188118811881e-01   1.287128712871e-01   1.386138613861e-01   1.485148514851e-01   1.584158415842e-01   1.683168316832e-01   1.782178217822e-01   1.881188118812e-01   1.980198019802e-01   2.079207920792e-01   2.178217821782e-01   2.277227722772e-01   2.376237623762e-01   2.475247524752e-01   2.574257425743e-01   2.673267326733e-01   2.772277227723e-01   2.871287128713e-01   2.970297029703e-01   3.069306930693e-01   3.168316831683e-01   3.267326732673e-01   3.366336633663e-01   3.465346534653e-01   3.564356435644e-01   3.663366336634e-01   3.762376237624e-01   3.861386138614e-01   3.960396039604e-01   4.059405940594e-01   4.158415841584e-01   4.257425742574e-01   4.356435643564e-01   4.455445544554e-01   4.554455445545e-01   4.653465346535e-01   4.752475247525e-01   4.851485148515e-01   4.950495049505e-01   5.049504950495e-01   5.148514851485e-01   5.247524752475e-01   5.346534653465e-01   5.445544554455e-01   5.544554455446e-01   5.643564356436e-01   5.742574257426e-01   5.841584158416e-01   5.940594059406e-01   6.039603960396e-01   6.138613861386e-01   6.237623762376e-01   6.336633663366e-01   6.435643564356e-01   6.534653465347e-01   6.633663366337e-01   6.732673267327e-01   6.831683168317e-01   6.930693069307e-01   7.029702970297e-01   7.128712871287e-01   7.227722772277e-01   7.326732673267e-01   7.425742574257e-01   7.524752475248e-01   7.623762376238e-01   7.722772277228e-01   7.821782178218e-01   7.920792079208e-01   8.019801980198e-01   8.118811881188e-01   8.217821782178e-01   8.316831683168e-01   8.415841584158e-01   8.514851485149e-01   8.613861386139e-01   8.712871287129e-01   8.811881188119e-01   8.910891089109e-01   9.009900990099e-01   9.108910891089e-01   9.207920792079e-01   9.306930693069e-01   9.405940594059e-01   9.504950495050e-01   9.603960396040e-01   9.702970297030e-01   9.801980198020e-01   9.900990099010e-01
Z_COORDINATES 1 float
  0.000000000000e+00
POINT_DATA 10201
VECTORS E_field float
  0.000000000000e+00 0.000000000000e+00 0.000000000000e+00
  0.000000000000e+00 0.000000000000e+00 0.000000000000e+00
  0.000000000000e+00 0.000000000000e+00 0.000000000000e+00
  0.000000000000e+00 0.000000000000e+00 0.000000000000e+00
  0.000000000000e+00 0.000000000000e+00 0.000000000000e+00
  0.000000000000e+00 0.000000000000e+00 0.000000000000e+00
  0.000000000000e+00 0.000000000000e+00 0.000000000000e+00
  0.000000000000e+00 0.000000000000e+00 0.000000000000e+00
  0.000000000000e+00 0.000000000000e+00 0.000000000000e+00
  0.000000000000e+00 0.000000000000e+00 0.000000000000e+00
  0.000000000000e+00 0.000000000000e+00 0.000000000000e+00
  0.000000000000e+00 0.000000000000e+00 0.000000000000e+00
  0.000000000000e+00 0.000000000000e+00 0.000000000000e+00
  0.000000000000e+00 0.000000000000e+00 0.000000000000e+00
  0.000000000000e+00 0.000000000000e+00 0.000000000000e+00
  0.000000000000e+00 0.000000000000e+00 0.000000000000e+00
  0.000000000000e+00 0.000000000000e+00 0.000000000000e+00
  0.000000000000e+00 0.000000000000e+00 0.000000000000e+00
  0.000000000000e+00 0.000000000000e+00 0.000000000000e+00
  0.000000000000e+00 0.000000000000e+00 0.000000000000e+00
  0.000000000000e+00 0.000000000000e+00 0.000000000000e+00
  0.000000000000e+00 0.000000000000e+00 0.000000000000e+00
  0.000000000000e+00 0.000000000000e+00 0.000000000000e+00
  0.000000000000e+00 0.000000000000e+00 0.000000000000e+00
  0.000000000000e+00 0.000000000000e+00 0.000000000000e+00
  0.000000000000e+00 0.000000000000e+00 0.000000000000e+00
  0.000000000000e+00 0.000000000000e+00 0.000000000000e+00
  0.000000000000e+00 0.000000000000e+00 0.000000000000e+00
  0.000000000000e+00 0.000000000000e+00 0.000000000000e+00
  0.000000000000e+00 0.000000000000e+00 0.000000000000e+00
  0.000000000000e+00 0.000000000000e+00 0.000000000000e+00
  0.000000000000e+00 0.000000000000e+00 0.000000000000e+00
  0.000000000000e+00 0.000000000000e+00 0.000000000000e+00
  0.000000000000e+00 0.000000000000e+00 0.000000000000e+00
  0.000000000000e+00 0.000000000000e+00 0.000000000000e+00
  0.000000000000e+00 0.000000000000e+00 0.000000000000e+00
  0.000000000000e+00 0.000000000000e+00 0.000000000000e+00
  0.000000000000e+00 0.000000000000e+00 0.000000000000e+00
  0.000000000000e+00 0.000000000000e+00 0.000000000000e+00
  0.000000000000e+00 0.000000000000e+00 0.000000000000e+00
  0.000000000000e+00 0.000000000000e+00 0.000000000000e+00
  0.000000000000e+00 0.000000000000e+00 0.000000000000e+00
  0.000000000000e+00 0.000000000000e+00 0.000000000000e+00
  0.000000000000e+00 0.000000000000e+00 0.000000000000e+00
  0.000000000000e+00 0.000000000000e+00 0.000000000000e+00
  0.000000000000e+00 0.000000000000e+00 0.000000000000e+00
  0.000000000000e+00 0.000000000000e+00 0.000000000000e+00
  0.000000000000e+00 0.000000000000e+00 0.000000000000e+00
  0.000000000000e+00 0.000000000000e+00 0.000000000000e+00
  0.000000000000e+00 0.000000000000e+00 0.000000000000e+00
  0.000000000000e+00 0.000000000000e+00 0.000000000000e+00
  0.000000000000e+00 0.000000000000e+00 0.000000000000e+00
  0.000000000000e+00 0.000000000000e+00 0.000000000000e+00
  0.000000000000e+00 0.000000000000e+00 0.000000000000e+00
  0.000000000000e+00 0.000000000000e+00 0.000000000000e+00
  0.000000000000e+00 0.000000000000e+00 0.000000000000e+00
  0.000000000000e+00 0.000000000000e+00 0.000000000000e+00
  0.000000000000e+00 0.000000000000e+00 0.000000000000e+00
  0.000000000000e+00 0.000000000000e+00 0.000000000000e+00
  0.000000000000e+00 0.000000000000e+00 0.000000000000e+00
  0.000000000000e+00 0.000000000000e+00 0.000000000000e+00
  0.000000000000e+00 0.000000000000e+00 0.000000000000e+00
  0.000000000000e+00 0.000000000000e+00 0.000000000000e+00
  0.000000000000e+00 0.000000000000e+00 0.000000000000e+00
  0.000000000000e+00 0.000000000000e+00 0.000000000000e+00
  0.000000000000e+00 0.000000000000e+00 0.000000000000e+00
  0.000000000000e+00 0.000000000000e+00 0.000000000000e+00
  0.000000000000e+00 0.000000000000e+00 0.000000000000e+00
  0.000000000000e+00 0.000000000000e+00 0.000000000000e+00
  0.000000000000e+00 0.000000000000e+00 0.000000000000e+00
  0.000000000000e+00 0.000000000000e+00 0.000000000000e+00
  0.000000000000e+00 0.000000000000e+00 0.000000000000e+00
  0.000000000000e+00 0.000000000000e+00 0.000000000000e+00
  0.000000000000e+00 0.000000000000e+00 0.000000000000e+00
  0.000000000000e+00 0.000000000000e+00 0.000000000000e+00
  0.000000000000e+00 0.000000000000e+00 0.000000000000e+00
  0.000000000000e+00 0.000000000000e+00 0.000000000000e+00
  0.000000000000e+00 0.000000000000e+00 0.000000000000e+00
  0.000000000000e+00 0.000000000000e+00 0.000000000000e+00
  0.000000000000e+00 0.000000000000e+00 0.000000000000e+00
  0.000000000000e+00 0.000000000000e+00 0.000000000000e+00
  0.000000000000e+00 0.000000000000e+00 0.000000000000e+00
  0.000000000000e+00 0.000000000000e+00 0.000000000000e+00
  0.000000000000e+00 0.000000000000e+00 0.000000000000e+00
  0.000000000000e+00 0.000000000000e+00 0.000000000000e+00
  0.000000000000e+00 0.000000000000e+00 0.000000000000e+00
  0.000000000000e+00 0.000000000000e+00 0.000000000000e+00
  0.000000000000e+00 0.000000000000e+00 0.000000000000e+00
  0.000000000000e+00 0.000000000000e+00 0.000000000000e+00
  0.000000000000e+00 0.000000000000e+00 0.000000000000e+00
  0.000000000000e+00 0.000000000000e+00 0.000000000000e+00
  0.000000000000e+00 0.000000000000e+00 0.000000000000e+00
  0.000000000000e+00 0.000000000000e+00 0.000000000000e+00
  0.000000000000e+00 0.000000000000e+00 0.000000000000e+00
  0.000000000000e+00 0.000000000000e+00 0.000000000000e+00
  0.000000000000e+00 0.000000000000e+00 0.000000000000e+00
  0.000000000000e+00 0.000000000000e+00 0.000000000000e+00
  0.000000000000e+00 0.000000000000e+00 0.000000000000e+00
  0.000000000000e+00 0.000000000000e+00 0.000000000000e+00
  0.000000000000e+00 0.000000000000e+00 0.000000000000e+00
  0.000000000000e+00 0.000000000000e+00 0.000000000000e+00
  0.000000000000e+00 0.000000000000e+00 0.000000000000e+00
  1.102534236436e-02 -1.102534236436e-02 0.000000000000e+00
  1.222725252549e-02 -3.503565607626e-02 0.000000000000e+00
  1.439004110949e-02 -6.447011684404e-02 0.000000000000e+00
  1.708289548135e-02 -1.014698023910e-01 0.000000000000e+00
  1.978013102735e-02 -1.461963909343e-01 0.000000000000e+00
  2.198161766672e-02 -1.966935477282e-01 0.000000000000e+00
  2.332919365758e-02 -2.494901829633e-01 0.000000000000e+00
  2.368443460444e-02 -3.008110213733e-01 0.000000000000e+00
  2.314106812242e-02 -3.478589604727e-01 0.000000000000e+00
  2.196648595911e-02 -3.895286532225e-01 0.000000000000e+00
  2.049314870386e-02 -4.262253969985e-01 0.000000000000e+00
  1.899987586256e-02 -4.589874524317e-01 0.000000000000e+00
  1.762543647185e-02 -4.884732584598e-01 0.000000000000e+00
  1.634115155698e-02 -5.143440428694e-01 0.000000000000e+00
  1.498332736363e-02 -5.352170353207e-01 0.000000000000e+00
  1.332329974013e-02 -5.489820979717e-01 0.000000000000e+00
  1.114358138716e-02 -5.531500725478e-01 0.000000000000e+00
  8.295594788197e-03 -5.450910526227e-01 0.000000000000e+00
  4.730739288893e-03 -5.223187751362e-01 0.000000000000e+00
  5.105682698707e-04 -4.830867829417e-01 0.000000000000e+00
  -4.194381464508e-03 -4.273445791913e-01 0.000000000000e+00
  -9.113429926943e-03 -3.577036903943e-01 0.000000000000e+00
  -1.389637197853e-02 -2.798106808784e-01 0.000000000000e+00
  -1.815174044757e-02 -2.016668930270e-01 0.000000000000e+00
  -2.150237804552e-02 -1.319414814064e-01 0.000000000000e+00
  -2.364853868121e-02 -7.788845327165e-02 0.000000000000e+00
  -2.442273175471e-02 -4.373031628952e-02 0.000000000000e+00
  -2.382137313695e-02 -3.013677831447e-02 0.000000000000e+00
  -2.200481652793e-02 -3.484911823285e-02 0.000000000000e+00
  -1.926603961956e-02 -5.394080607259e-02 0.000000000000e+00
  -1.597608053946e-02 -8.300077179521e-02 0.000000000000e+00
  -1.251931158040e-02 -1.177703478337e-01 0.000000000000e+00
  -9.232640469920e-03 -1.542531885528e-01 0.000000000000e+00
  -6.359764208710e-03 -1.886959618921e-01 0.000000000000e+00
  -4.026605822013e-03 -2.178531926010e-01 0.000000000000e+00
  -2.240043956597e-03 -2.396218099284e-01 0.000000000000e+00
  -9.103631914761e-04 -2.537243249349e-01 0.000000000000e+00
  1.035883116901e-04 -2.619403969966e-01 0.000000000000e+00
  9.324608616657e-04 -2.675611837600e-01 0.000000000000e+00
  1.632771237094e-03 -2.741425852440e-01 0.000000000000e+00
  2.145137411617e-03 -2.839984337049e-01 0.000000000000e+00
  2.297681968107e-03 -2.969983590902e-01 0.000000000000e+00
  1.864272769763e-03 -3.100950247546e-01 0.000000000000e+00
  6.640204270705e-04 -3.177345419867e-01 0.000000000000e+00
  -1.333314629173e-03 -3.130592749512e-01 0.000000000000e+00
  -3.939763593873e-03 -2.896552320042e-01 0.000000000000e+00
  -6.752746244866e-03 -2.434808073103e-01 0.000000000000e+00
  -9.237563466744e-03 -1.744891994994e-01 0.000000000000e+00
  -1.086639768785e-02 -8.738031372053e-02 0.000000000000e+00
  -1.126883948613e-02 8.959038565273e-03 0.000000000000e+00
  -1.034263196336e-02 1.033580696730e-01 0.000000000000e+00
  -8.285784551196e-03 1.850760282282e-01 0.000000000000e+00
  -5.538159864206e-03 2.463970675253e-01 0.000000000000e+00
  -2.652423986401e-03 2.842118281616e-01 0.000000000000e+00
  -1.390901670161e-04 3.001516853166e-01 0.000000000000e+00
  1.661350028668e-03 2.994379274884e-01 0.000000000000e+00
  2.638076277187e-03 2.890088005998e-01 0.000000000000e+00
  2.887731256139e-03 2.755582068541e-01 0.000000000000e+00
  2.628470537758e-03 2.639636813254e-01 0.000000000000e+00
  2.090682958531e-03 2.563806323759e-01 0.000000000000e+00
  1.428074794871e-03 2.521260894310e-01 0.000000000000e+00
  6.769988290928e-04 2.483367543278e-01 0.000000000000e+00
  -2.331561645692e-04 2.412066470697e-01 0.000000000000e+00
  -1.436021266676e-03 2.274140969598e-01 0.000000000000e+00
  -3.074449955918e-03 2.052526376059e-01 0.000000000000e+00
  -5.253445146493e-03 1.750985735141e-01 0.000000000000e+00
  -8.004958993925e-03 1.391692691640e-01 0.000000000000e+00
  -1.126333360209e-02 1.008787932774e-01 0.000000000000e+00
  -1.485145085894e-02 6.424668130687e-02 0.000000000000e+00
  -1.848204719962e-02 3.364203616334e-02 0.000000000000e+00
  -2.177989500828e-02 1.376211274437e-02 0.000000000000e+00
  -2.432649627468e-02 9.440093713852e-03 0.000000000000e+00
  -2.572213584622e-02 2.490689955917e-02 0.000000000000e+00
  -2.565422350570e-02 6.251718855273e-02 0.000000000000e+00
  -2.395752795274e-02 1.214381269408e-01 0.000000000000e+00
  -2.065161680359e-02 1.970335766184e-01 0.000000000000e+00
  -1.594463410858e-02 2.814492927686e-01 0.000000000000e+00
  -1.020138852511e-02 3.653203037735e-01 0.000000000000e+00
  -3.885264582804e-03 4.399374080104e-01 0.000000000000e+00
  2.508590271602e-03 4.989966359467e-01 0.000000000000e+00
  8.512773455394e-03 5.393408545668e-01 0.000000000000e+00
  1.373370285271e-02 5.606809387165e-01 0.000000000000e+00
  1.788812565471e-02 5.647645349694e-01 0.000000000000e+00
  2.083482636103e-02 5.545489281623e-01 0.000000000000e+00
  2.259679811379e-02 5.336405156514e-01 0.000000000000e+00
  2.335809837548e-02 5.058771999932e-01 0.000000000000e+00
  2.341923235956e-02 4.747842228110e-01 0.000000000000e+00
  2.311034405743e-02 4.428374339666e-01 0.000000000000e+00
  2.268557897232e-02 4.108243171839e-01 0.000000000000e+00
  2.223945229553e-02 3.777663606894e-01 0.000000000000e+00
  2.168398105021e-02 3.416572369110e-01 0.000000000000e+00
  2.080207617215e-02 3.007843379057e-01 0.000000000000e+00
  1.935929824433e-02 2.549770495673e-01 0.000000000000e+00
  1.722969399579e-02 2.060891291719e-01 0.000000000000e+00
  1.448526139837e-02 1.574345420025e-01 0.000000000000e+00
  1.141476758869e-02 1.124898691105e-01 0.000000000000e+00
  8.466846199436e-03 7.355032499325e-02 0.000000000000e+00
  6.139915796527e-03 4.095242901080e-02 0.000000000000e+00
  4.856167642152e-03 1.307333249269e-02 0.000000000000e+00
  0.000000000000e+00 0.000000000000e+00 0.000000000000e+00
  0.000000000000e+00 0.000000000000e+00 0.000000000000e+00
  3.503565607626e-02 -1.222725252549e-02 0.000000000000e+00
  3.839589960131e-02 -3.839589960131e-02 0.000000000000e+00
  4.442710198307e-02 -6.930386428475e-02 0.000000000000e+00
  5.189949824367e-02 -1.068013055828e-01 0.000000000000e+00
  5.931773520977e-02 -1.509803602546e-01 0.000000000000e+00
  6.526823987642e-02 -2.000615697138e-01 0.000000000000e+00
  6.875279481601e-02 -2.509542919081e-01 0.000000000000e+00
  6.940828376286e-02 -3.003576423222e-01 0.000000000000e+00
  6.753672316666e-02 -3.458974124455e-01 0.000000000000e+00
  6.393157723814e-02 -3.867104731579e-01 0.000000000000e+00
  5.956204468040e-02 -4.232007072502e-01 0.000000000000e+00
  5.523101615849e-02 -4.561878408169e-01 0.000000000000e+00
  5.132788074406e-02 -4.859952952695e-01 0.000000000000e+00
  4.775155300434e-02 -5.119613934050e-01 0.000000000000e+00
  4.400532103814e-02 -5.324956286255e-01 0.000000000000e+00
  3.940024449729e-02 -5.454384005026e-01 0.000000000000e+00
  3.327784137245e-02 -5.483916485391e-01 0.000000000000e+00
  2.518202072244e-02 -5.389056693823e-01 0.000000000000e+00
  1.495490667187e-02 -5.147121888266e-01 0.000000000000e+00
  2.769907082389e-03 -4.742881986428e-01 0.000000000000e+00
  -1.087331305722e-02 -4.177949936163e-01 0.000000000000e+00
  -2.518139577172e-02 -3.480261447924e-01 0.000000000000e+00
  -3.913584502349e-02 -2.707508351769e-01 0.000000000000e+00
  -5.160941801442e-02 -1.939977972685e-01 0.000000000000e+00
  -6.152563444249e-02 -1.263437231389e-01 0.000000000000e+00
  -6.803300258440e-02 -7.483268276156e-02 0.000000000000e+00
  -7.065190736812e-02 -4.339298894239e-02 0.000000000000e+00
  -6.935642112856e-02 -3.237095051892e-02 0.000000000000e+00
  -6.457140192401e-02 -3.921652184195e-02 0.000000000000e+00
  -5.708763609246e-02 -5.979594520335e-02 0.000000000000e+00
  -4.791683230116e-02 -8.960639553577e-02 0.000000000000e+00
  -3.811981608643e-02 -1.244185092667e-01 0.000000000000e+00
  -2.864320967359e-02 -1.603683046427e-01 0.000000000000e+00
  -2.019274342263e-02 -1.939041883136e-01 0.000000000000e+00
  -1.315999786033e-02 -2.220108701269e-01 0.000000000000e+00
  -7.610812190835e-03 -2.427998799345e-01 0.000000000000e+00
  -3.340179562413e-03 -2.561465683173e-01 0.000000000000e+00
  6.275070300406e-06 -2.638785597417e-01 0.000000000000e+00
  2.759976270322e-03 -2.692055947518e-01 0.000000000000e+00
  5.049829211166e-03 -2.754883375490e-01 0.000000000000e+00
  6.683934212247e-03 -2.847991525479e-01 0.000000000000e+00
  7.160184206433e-03 -2.968264347606e-01 0.000000000000e+00
  5.833781462467e-03 -3.085071370940e-01 0.000000000000e+00
  2.202679482773e-03 -3.144910752666e-01 0.000000000000e+00
  -3.790712926094e-03 -3.083120141392e-01 0.000000000000e+00
  -1.156759581538e-02 -2.840191608898e-01 0.000000000000e+00
  -1.992681339275e-02 -2.379446781234e-01 0.000000000000e+00
  -2.728747028047e-02 -1.701798545093e-01 0.000000000000e+00
  -3.209546431172e-02 -8.525283040255e-02 0.000000000000e+00
  -3.326328489234e-02 8.401817664488e-03 0.000000000000e+00
  -3.049349186459e-02 1.002192900399e-01 0.000000000000e+00
  -2.437230459775e-02 1.800367731754e-01 0.000000000000e+00
  -1.619843779260e-02 2.405148310564e-01 0.000000000000e+00
  -7.605327443559e-03 2.786152183546e-01 0.000000000000e+00
  -1.074134453270e-04 2.957370472426e-01 0.000000000000e+00
  5.275015836893e-03 2.966696960130e-01 0.000000000000e+00
  8.192762409291e-03 2.878825591810e-01 0.000000000000e+00
  8.906758007006e-03 2.757207976265e-01 0.000000000000e+00
  8.041427488211e-03 2.649256817279e-01 0.000000000000e+00
  6.268989285138e-03 2.577288577033e-01 0.000000000000e+00
  4.050996084841e-03 2.536584654258e-01 0.000000000000e+00
  1.518310247131e-03 2.500881401049e-01 0.000000000000e+00
  -1.501217767714e-03 2.433849442783e-01 0.000000000000e+00
  -5.357079024180e-03 2.302945260942e-01 0.000000000000e+00
  -1.042126003176e-02 2.090748181582e-01 0.000000000000e+00
  -1.695383943488e-02 1.799879675492e-01 0.000000000000e+00
  -2.500591058945e-02 1.450834601273e-01 0.000000000000e+00
  -3.435677558794e-02 1.075738419188e-01 0.000000000000e+00
  -4.448352717562e-02 7.126650150893e-02 0.000000000000e+00
  -5.457190669243e-02 4.034119181819e-02 0.000000000000e+00
  -6.358115269743e-02 1.937005090289e-02 0.000000000000e+00
  -7.036617969466e-02 1.316378381883e-02 0.000000000000e+00
  -7.384387766552e-02 2.605654699653e-02 0.000000000000e+00
  -7.317549891974e-02 6.063125002903e-02 0.000000000000e+00
  -6.792815472585e-02 1.163800257177e-01 0.000000000000e+00
  -5.817667967860e-02 1.890342916452e-01 0.000000000000e+00
  -4.451596461422e-02 2.710808799825e-01 0.000000000000e+00
  -2.797652063466e-02 3.534060269966e-01 0.000000000000e+00
  -9.866863471355e-03 4.274259036817e-01 0.000000000000e+00
  8.411482084254e-03 4.868359398654e-01 0.000000000000e+00
  2.553288453400e-02 5.283759650146e-01 0.000000000000e+00
  4.038218232484e-02 5.515756010806e-01 0.000000000000e+00
  5.216288334361e-02 5.579347487845e-01 0.000000000000e+00
  6.048940802083e-02 5.501054889636e-01 0.000000000000e+00
  6.544867260165e-02 5.313627185165e-01 0.000000000000e+00
  6.758718523644e-02 5.052551842316e-01 0.000000000000e+00
  6.777978211896e-02 4.751525077060e-01 0.000000000000e+00
  6.697943608843e-02 4.435783834042e-01 0.000000000000e+00
  6.591481422947e-02 4.115727546903e-01 0.000000000000e+00
  6.485129037293e-02 3.785275737163e-01 0.000000000000e+00
  6.352557937119e-02 3.427772061311e-01 0.000000000000e+00
  6.129873314368e-02 3.027731197912e-01 0.000000000000e+00
  5.747736879944e-02 2.582524099539e-01 0.000000000000e+00
  5.167701727732e-02 2.107437245560e-01 0.000000000000e+00
  4.408253990797e-02 1.631188565852e-01 0.000000000000e+00
  3.550579351404e-02 1.184527947314e-01 0.000000000000e+00
  2.722430899432e-02 7.881680528133e-02 0.000000000000e+00
  2.066486842337e-02 4.457231969658e-02 0.000000000000e+00
  1.703938210303e-02 1.436267628164e-02 0.000000000000e+00
  0.000000000000e+00 0.000000000000e+00 0.000000000000e+00
  0.000000000000e+00 0.000000000000e+00 0.000000000000e+00
  6.447011684404e-02 -1.439004110949e-02 0.000000000000e+00
  6.930386428475e-02 -4.442710198307e-02 0.000000000000e+00
  7.793037843189e-02 -7.793037843189e-02 0.000000000000e+00
  8.849941524120e-02 -1.162162245055e-01 0.000000000000e+00
  9.877745807296e-02 -1.592617211297e-01 0.000000000000e+00
  1.066815722058e-01 -2.056348276383e-01 0.000000000000e+00
  1.107851059362e-01 -2.529691226536e-01 0.000000000000e+00
  1.106410314520e-01 -2.988542260393e-01 0.000000000000e+00
  1.068099678308e-01 -3.416982045111e-01 0.000000000000e+00
  1.005777505494e-01 -3.810723178823e-01 0.000000000000e+00
  9.346283636292e-02 -4.173544157815e-01 0.000000000000e+00
  8.669248279828e-02 -4.509327501990e-01 0.000000000000e+00
  8.083016247727e-02 -4.814849301520e-01 0.000000000000e+00
  7.566449644877e-02 -5.077297647543e-01 0.000000000000e+00
  7.035939661174e-02 -5.276759254729e-01 0.000000000000e+00
  6.377046090278e-02 -5.390640914053e-01 0.000000000000e+00
  5.479550799150e-02 -5.396686016003e-01 0.000000000000e+00
  4.265406750807e-02 -5.273914551878e-01 0.000000000000e+00
  2.705261440853e-02 -5.003978358711e-01 0.000000000000e+00
  8.246343610838e-03 -4.576112812111e-01 0.000000000000e+00
  -1.297328276716e-02 -3.996090645303e-01 0.000000000000e+00
  -3.534939411842e-02 -3.295278798126e-01 0.000000000000e+00
  -5.729204275631e-02 -2.533520022671e-01 0.000000000000e+00
  -7.707513240517e-02 -1.791399675385e-01 0.000000000000e+00
  -9.307944472749e-02 -1.152810241185e-01 0.000000000000e+00
  -1.040374047499e-01 -6.843005361765e-02 0.000000000000e+00
  -1.092251944466e-01 -4.198892360587e-02 0.000000000000e+00
  -1.085600396212e-01 -3.573565692036e-02 0.000000000000e+00
  -1.025863412769e-01 -4.661053298926e-02 0.000000000000e+00
  -9.236071836169e-02 -7.011132280251e-02 0.000000000000e+00
  -7.926495031302e-02 -1.015575897759e-01 0.000000000000e+00
  -6.478520840114e-02 -1.367440731518e-01 0.000000000000e+00
  -5.029627019357e-02 -1.720082853751e-01 0.000000000000e+00
  -3.688271233289e-02 -2.041282316871e-01 0.000000000000e+00
  -2.522055104779e-02 -2.304817335902e-01 0.000000000000e+00
  -1.553822067983e-02 -2.495605324897e-01 0.000000000000e+00
  -7.674292448682e-03 -2.615204765893e-01 0.000000000000e+00
  -1.240102777671e-03 -2.682852957208e-01 0.000000000000e+00
  4.133678797211e-03 -2.729263414660e-01 0.000000000000e+00
  8.534009716012e-03 -2.784577745738e-01 0.000000000000e+00
  1.159256999630e-02 -2.865223806345e-01 0.000000000000e+00
  1.250716117596e-02 -2.964940476199e-01 0.000000000000e+00
  1.030005584857e-02 -3.053060158728e-01 0.000000000000e+00
  4.253381933557e-03 -3.080144202417e-01 0.000000000000e+00
  -5.633876677044e-03 -2.989080177426e-01 0.000000000000e+00
  -1.836015179015e-02 -2.729199988513e-01 0.000000000000e+00
  -3.195479276719e-02 -2.270899811728e-01 0.000000000000e+00
  -4.386620896094e-02 -1.617624779768e-01 0.000000000000e+00
  -5.160486579595e-02 -8.112355573719e-02 0.000000000000e+00
  -5.343741166813e-02 7.272909680249e-03 0.000000000000e+00
  -4.889694489885e-02 9.403793832793e-02 0.000000000000e+00
  -3.893002062219e-02 1.701300133061e-01 0.000000000000e+00
  -2.562507289892e-02 2.289427762250e-01 0.000000000000e+00
  -1.161413563973e-02 2.675832252896e-01 0.000000000000e+00
  6.459708317920e-04 2.870110194637e-01 0.000000000000e+00
  9.470207993794e-03 2.911890569234e-01 0.000000000000e+00
  1.423252968658e-02 2.856831295675e-01 0.000000000000e+00
  1.528173238557e-02 2.761570285240e-01 0.000000000000e+00
  1.356618416254e-02 2.670703291957e-01 0.000000000000e+00
  1.014678879778e-02 2.607760434842e-01 0.000000000000e+00
  5.793050492613e-03 2.571830108941e-01 0.000000000000e+00
  7.893477556540e-04 2.540999830158e-01 0.000000000000e+00
  -5.030706041598e-03 2.482126830377e-01 0.000000000000e+00
  -1.209549191341e-02 2.363874343650e-01 0.000000000000e+00
  -2.085891427511e-02 2.168095131920e-01 0.000000000000e+00
  -3.159764631477e-02 1.895245839176e-01 0.000000000000e+00
  -4.427417348614e-02 1.562754420605e-01 0.000000000000e+00
  -5.846273217474e-02 1.199212836587e-01 0.000000000000e+00
  -7.332944282788e-02 8.391252200220e-02 0.000000000000e+00
  -8.766883640732e-02 5.212294441724e-02 0.000000000000e+00
  -1.000054445955e-01 2.893415249511e-02 0.000000000000e+00
  -1.087615289151e-01 1.914079354247e-02 0.000000000000e+00
  -1.124755886867e-01 2.727129501499e-02 0.000000000000e+00
  -1.100400450335e-01 5.631257961138e-02 0.000000000000e+00
  -1.009145142858e-01 1.063258211936e-01 0.000000000000e+00
  -8.526546892261e-02 1.736879757588e-01 0.000000000000e+00
  -6.399022075276e-02 2.514912326347e-01 0.000000000000e+00
  -3.860970935490e-02 3.310757189670e-01 0.000000000000e+00
  -1.105494934308e-02 4.040917945361e-01 0.000000000000e+00
  1.659562302344e-02 4.642411310888e-01 0.000000000000e+00
  4.236877507095e-02 5.080762192940e-01 0.000000000000e+00
  6.460892127321e-02 5.347859028082e-01 0.000000000000e+00
  8.215290439769e-02 5.453997629137e-01 0.000000000000e+00
  9.447344473387e-02 5.419934098210e-01 0.000000000000e+00
  1.017660329867e-01 5.272229448255e-01 0.000000000000e+00
  1.049173862608e-01 5.041050920138e-01 0.000000000000e+00
  1.052963198367e-01 4.757310694654e-01 0.000000000000e+00
  1.043704064968e-01 4.447260810153e-01 0.000000000000e+00
  1.032482752752e-01 4.126118101598e-01 0.000000000000e+00
  1.023187896740e-01 3.794815277045e-01 0.000000000000e+00
  1.011515263225e-01 3.443162264962e-01 0.000000000000e+00
  9.872780324369e-02 3.058846687324e-01 0.000000000000e+00
  9.393019306707e-02 2.637598355336e-01 0.000000000000e+00
  8.610191410985e-02 2.188649294557e-01 0.000000000000e+00
  7.545461146129e-02 1.732394317034e-01 0.000000000000e+00
  6.316798981592e-02 1.291955876525e-01 0.000000000000e+00
  5.115119002755e-02 8.837229666833e-02 0.000000000000e+00
  4.156044925189e-02 5.116700965619e-02 0.000000000000e+00
  3.623793601424e-02 1.671598588002e-02 0.000000000000e+00
  0.000000000000e+00 0.000000000000e+00 0.000000000000e+00
  0.000000000000e+00 0.000000000000e+00 0.000000000000e+00
  1.014698023910e-01 -1.708289548135e-02 0.000000000000e+00
  1.068013055828e-01 -5.189949824367e-02 0.000000000000e+00
  1.162162245055e-01 -8.849941524120e-02 0.000000000000e+00
  1.275095291212e-01 -1.275095291212e-01 0.000000000000e+00
  1.380506275273e-01 -1.687875577520e-01 0.000000000000e+00
  1.454408822672e-01 -2.114033598888e-01 0.000000000000e+00
  1.481230899261e-01 -2.539863317924e-01 0.000000000000e+00
  1.457520567857e-01 -2.953219092758e-01 0.000000000000e+00
  1.391943206665e-01 -3.348417215343e-01 0.000000000000e+00
  1.301510045629e-01 -3.726532674741e-01 0.000000000000e+00
  1.205382555282e-01 -4.090458029685e-01 0.000000000000e+00
  1.118479137826e-01 -4.437806677019e-01 0.000000000000e+00
  1.047054160059e-01 -4.756321945514e-01 0.000000000000e+00
  9.874910070450e-02 -5.024605190250e-01 0.000000000000e+00
  9.282406010546e-02 -5.217150307662e-01 0.000000000000e+00
  8.537721976506e-02 -5.309892100627e-01 0.000000000000e+00
  7.490081957123e-02 -5.282921298378e-01 0.000000000000e+00
  6.030070754193e-02 -5.120263744375e-01 0.000000000000e+00
  4.113003162399e-02 -4.809907876038e-01 0.000000000000e+00
  1.768478155099e-02 -4.347668086077e-01 0.000000000000e+00
  -9.018747043433e-03 -3.745303821613e-01 0.000000000000e+00
  -3.736682006296e-02 -3.038823778108e-01 0.000000000000e+00