# vtk DataFile Version 3.0
Karman Output
ASCII
DATASET RECTILINEAR_GRID
DIMENSIONS 101 101 1
X_COORDINATES 101 float
   0.000000000000e+00   9.900990099010e-03   1.980198019802e-02   2.970297029703e-02   3.960396039604e-02   4.950495049505e-02   5.940594059406e-02   6.930693069307e-02   7.920792079208e-02   8.910891089109e-02   9.900990099010e-02   1.089108910891e-01   1.188118811881e-01   1.287128712871e-01   1.386138613861e-01   1.485148514851e-01   1.584158415842e-01   1.683168316832e-01   1.782178217822e-01   1.881188118812e-01   1.980198019802e-01   2.079207920792e-01   2.178217821782e-01   2.277227722772e-01   2.376237623762e-01   2.475247524752e-01   2.574257425743e-01   2.673267326733e-01   2.772277227723e-01   2.871287128713e-01   2.970297029703e-01   3.069306930693e-01   3.168316831683e-01   3.267326732673e-01   3.366336633663e-01   3.465346534653e-01   3.564356435644e-01   3.663366336634e-01   3.762376237624e-01   3.861386138614e-01   3.960396039604e-01   4.059405940594e-01   4.158415841584e-01   4.257425742574e-01   4.356435643564e-01   4.455445544554e-01   4.554455445545e-01   4.653465346535e-01   4.752475247525e-01   4.851485148515e-01   4.950495049505e-01   5.049504950495e-01   5.148514851485e-01   5.247524752475e-01   5.346534653465e-01   5.445544554455e-01   5.544554455446e-01   5.643564356436e-01   5.742574257426e-01   5.841584158416e-01   5.940594059406e-01   6.039603960396e-01   6.138613861386e-01   6.237623762376e-01   6.336633663366e-01   6.435643564356e-01   6.534653465347e-01   6.633663366337e-01   6.732673267327e-01   6.831683168317e-01   6.930693069307e-01   7.029702970297e-01   7.128712871287e-01   7.227722772277e-01   7.326732673267e-01   7.425742574257e-01   7.524752475248e-01   7.623762376238e-01   7.722772277228e-01   7.821782178218e-01   7.920792079208e-01   8.019801980198e-01   8.118811881188e-01   8.217821782178e-01   8.316831683168e-01   8.415841584158e-01   8.514851485149e-01   8.613861386139e-01   8.712871287129e-01   8.811881188119e-01   8.910891089109e-01   9.009900990099e-01   9.108910891089e-01   9.207920792079e-01   9.306930693069e-01   9.405940594059e-01   9.504950495050e-01   9.603960396040e-01   9.702970297030e-01   9.801980198020e-01   9.900990099010e-01
Y_COORDINATES 101 float
   0.000000000000e+00   9.900990099010e-03   1.980198019802e-02   2.970297029703e-02   3.960396039604e-02   4.950495049505e-02   5.940594059406e-02   6.930693069307e-02   7.920792079208e-02   8.910891089109e-02   9.900990099010e-02   1.089108910891e-01   1.188118811881e-01   1.287128712871e-01   1.386138613861e-01   1.485148514851e-01   1.584158415842e-01   1.683168316832e-01   1.782178217822e-01   1.881188118812e-01   1.980198019802e-01   2.079207920792e-01   2.178217821782e-01   2.277227722772e-01   2.376237623762e-01   2.475247524752e-01   2.574257425743e-01   2.673267326733e-01   2.772277227723e-01   2.871287128713e-01   2.970297029703e-01   3.069306930693e-01   3.168316831683e-01   3.267326732673e-01   3.366336633663e-01   3.465346534653e-01   3.564356435644e-01   3.663366336634e-01   3.762376237624e-01   3.861386138614e-01   3.960396039604e-01   4.059405940594e-01   4.158415841584e-01   4.257425742574e-01   4.356435643564e-01   4.455445544554e-01   4.554455445545e-01   4.653465346535e-01   4.752475247525e-01   4.851485148515e-01   4.950495049505e-01   5.049504950495e-01   5.148514851485e-01   5.247524752475e-01   5.346534653465e-01   5.445544554455e-01   5.544554455446e-01   5.643564356436e-01   5.742574257426e-01   5.841584158416e-01   5.940594059406e-01   6.039603960396e-01   6.138613861386e-01   6.237623762376e-01   6.336633663366e-01   6.435643564356e-01   6.534653465347e-01   6.633663366337e-01   6.732673267327e-01   6.831683168317e-01   6.930693069307e-01   7.029702970297e-01   7.128712871287e-01   7.227722772277e-01   7.326732673267e-01   7.425742574257e-01   7.524752475248e-01   7.623762376238e-01   7.722772277228e-01   7.821782178218e-01   7.920792079208e-01   8.019801980198e-01   8.118811881188e-01   8.217821782178e-01   8.316831683168e-01   8.415841584158e-01   8.514851485149e-01   8.613861386139e-01   8.712871287129e-01   8.811881188119e-01   8.910891089109e-01   9.009900990099e-01   9.108910891089e-01   9.207920792079e-01   9.306930693069e-01   9.405940594059e-01   9.504950495050e-01   9.603960396040e-01   9.702970297030e-01   9.801980198020e-01   9.900990099010e-01
Z_COORDINATES 1 float
  0.000000000000e+00
POINT_DATA 10201
VECTORS E_field float
  0.000000000000e+00 0.000000000000e+00 0.000000000000e+00
  0.000000000000e+00 0.000000000000e+00 0.000000000000e+00
  0.000000000000e+00 0.000000000000e+00 0.000000000000e+00
  0.000000000000e+00 0.000000000000e+00 0.000000000000e+00
  0.000000000000e+00 0.000000000000e+00 0.000000000000e+00
  0.000000000000e+00 0.000000000000e+00 0.000000000000e+00
  0.000000000000e+00 0.000000000000e+00 0.000000000000e+00
  0.000000000000e+00 0.000000000000e+00 0.000000000000e+00
  0.000000000000e+00 0.000000000000e+00 0.000000000000e+00
  0.000000000000e+00 0.000000000000e+00 0.000000000000e+00
  0.000000000000e+00 0.000000000000e+00 0.000000000000e+00
  0.000000000000e+00 0.000000000000e+00 0.000000000000e+00
  0.000000000000e+00 0.000000000000e+00 0.000000000000e+00
  0.000000000000e+00 0.000000000000e+00 0.000000000000e+00
  0.000000000000e+00 0.000000000000e+00 0.000000000000e+00
  0.000000000000e+00 0.000000000000e+00 0.000000000000e+00
  0.000000000000e+00 0.000000000000e+00 0.000000000000e+00
  0.000000000000e+00 0.000000000000e+00 0.000000000000e+00
  0.000000000000e+00 0.000000000000e+00 0.000000000000e+00
  0.000000000000e+00 0.000000000000e+00 0.000000000000e+00
  0.000000000000e+00 0.000000000000e+00 0.000000000000e+00
  0.000000000000e+00 0.000000000000e+00 0.000000000000e+00
  0.000000000000e+00 0.000000000000e+00 0.000000000000e+00
  0.000000000000e+00 0.000000000000e+00 0.000000000000e+00
  0.000000000000e+00 0.000000000000e+00 0.000000000000e+00
  0.000000000000e+00 0.000000000000e+00 0.000000000000e+00
  0.000000000000e+00 0.000000000000e+00 0.000000000000e+00
  0.000000000000e+00 0.000000000000e+00 0.000000000000e+00
  0.000000000000e+00 0.000000000000e+00 0.000000000000e+00
  0.000000000000e+00 0.000000000000e+00 0.000000000000e+00
  0.000000000000e+00 0.000000000000e+00 0.000000000000e+00
  0.000000000000e+00 0.000000000000e+00 0.000000000000e+00
  0.000000000000e+00 0.000000000000e+00 0.000000000000e+00
  0.000000000000e+00 0.000000000000e+00 0.000000000000e+00
  0.000000000000e+00 0.000000000000e+00 0.000000000000e+00
  0.000000000000e+00 0.000000000000e+00 0.000000000000e+00
  0.000000000000e+00 0.000000000000e+00 0.000000000000e+00
  0.000000000000e+00 0.000000000000e+00 0.000000000000e+00
  0.000000000000e+00 0.000000000000e+00 0.000000000000e+00
  0.000000000000e+00 0.000000000000e+00 0.000000000000e+00
  0.000000000000e+00 0.000000000000e+00 0.000000000000e+00
  0.000000000000e+00 0.000000000000e+00 0.000000000000e+00
  0.000000000000e+00 0.000000000000e+00 0.000000000000e+00
  0.000000000000e+00 0.000000000000e+00 0.000000000000e+00
  0.000000000000e+00 0.000000000000e+00 0.000000000000e+00
  0.000000000000e+00 0.000000000000e+00 0.000000000000e+00
  0.000000000000e+00 0.000000000000e+00 0.000000000000e+00
  0.000000000000e+00 0.000000000000e+00 0.000000000000e+00
  0.000000000000e+00 0.000000000000e+00 0.000000000000e+00
  0.000000000000e+00 0.000000000000e+00 0.000000000000e+00
  0.000000000000e+00 0.000000000000e+00 0.000000000000e+00
  0.000000000000e+00 0.000000000000e+00 0.000000000000e+00
  0.000000000000e+00 0.000000000000e+00 0.000000000000e+00
  0.000000000000e+00 0.000000000000e+00 0.000000000000e+00
  0.000000000000e+00 0.000000000000e+00 0.000000000000e+00
  0.000000000000e+00 0.000000000000e+00 0.000000000000e+00
  0.000000000000e+00 0.000000000000e+00 0.000000000000e+00
  0.000000000000e+00 0.000000000000e+00 0.000000000000e+00
  0.000000000000e+00 0.000000000000e+00 0.000000000000e+00
  0.000000000000e+00 0.000000000000e+00 0.000000000000e+00
  0.000000000000e+00 0.000000000000e+00 0.000000000000e+00
  0.000000000000e+00 0.000000000000e+00 0.000000000000e+00
  0.000000000000e+00 0.000000000000e+00 0.000000000000e+00
  0.000000000000e+00 0.000000000000e+00 0.000000000000e+00
  0.000000000000e+00 0.000000000000e+00 0.000000000000e+00
  0.000000000000e+00 0.000000000000e+00 0.000000000000e+00
  0.000000000000e+00 0.000000000000e+00 0.000000000000e+00
  0.000000000000e+00 0.000000000000e+00 0.000000000000e+00
  0.000000000000e+00 0.000000000000e+00 0.000000000000e+00
  0.000000000000e+00 0.000000000000e+00 0.000000000000e+00
  0.000000000000e+00 0.000000000000e+00 0.000000000000e+00
  0.000000000000e+00 0.000000000000e+00 0.000000000000e+00
  0.000000000000e+00 0.000000000000e+00 0.000000000000e+00
  0.000000000000e+00 0.000000000000e+00 0.000000000000e+00
  0.000000000000e+00 0.000000000000e+00 0.000000000000e+00
  0.000000000000e+00 0.000000000000e+00 0.000000000000e+00
  0.000000000000e+00 0.000000000000e+00 0.000000000000e+00
  0.000000000000e+00 0.000000000000e+00 0.000000000000e+00
  0.000000000000e+00 0.000000000000e+00 0.000000000000e+00
  0.000000000000e+00 0.000000000000e+00 0.000000000000e+00
  0.000000000000e+00 0.000000000000e+00 0.000000000000e+00
  0.000000000000e+00 0.000000000000e+00 0.000000000000e+00
  0.000000000000e+00 0.000000000000e+00 0.000000000000e+00
  0.000000000000e+00 0.000000000000e+00 0.000000000000e+00
  0.000000000000e+00 0.000000000000e+00 0.000000000000e+00
  0.000000000000e+00 0.000000000000e+00 0.000000000000e+00
  0.000000000000e+00 0.000000000000e+00 0.000000000000e+00
  0.000000000000e+00 0.000000000000e+00 0.000000000000e+00
  0.000000000000e+00 0.000000000000e+00 0.000000000000e+00
  0.000000000000e+00 0.000000000000e+00 0.000000000000e+00
  0.000000000000e+00 0.000000000000e+00 0.000000000000e+00
  0.000000000000e+00 0.000000000000e+00 0.000000000000e+00
  0.000000000000e+00 0.000000000000e+00 0.000000000000e+00
  0.000000000000e+00 0.000000000000e+00 0.000000000000e+00
  0.000000000000e+00 0.000000000000e+00 0.000000000000e+00
  0.000000000000e+00 0.000000000000e+00 0.000000000000e+00
  0.000000000000e+00 0.000000000000e+00 0.000000000000e+00
  0.000000000000e+00 0.000000000000e+00 0.000000000000e+00
  0.000000000000e+00 0.000000000000e+00 0.000000000000e+00
  0.000000000000e+00 0.000000000000e+00 0.000000000000e+00
  0.000000000000e+00 0.000000000000e+00 0.000000000000e+00
  0.000000000000e+00 0.000000000000e+00 0.000000000000e+00
  2.394845855797e-03 -2.394845855797e-03 0.000000000000e+00
  3.972708302159e-03 -8.604511105879e-03 0.000000000000e+00
  6.820451700090e-03 -1.908804593439e-02 0.000000000000e+00
  1.039097784033e-02 -3.654849791936e-02 0.000000000000e+00
  1.401949603335e-02 -6.293718730190e-02 0.000000000000e+00
  1.706838889500e-02 -9.852611637585e-02 0.000000000000e+00
  1.906008868465e-02 -1.411226309323e-01 0.000000000000e+00
  1.976499777714e-02 -1.860078251913e-01 0.000000000000e+00
  1.922367535204e-02 -2.269054093000e-01 0.000000000000e+00
  1.770249445469e-02 -2.577424260164e-01 0.000000000000e+00
  1.560351995994e-02 -2.744862811769e-01 0.000000000000e+00
  1.336311256351e-02 -2.762615039487e-01 0.000000000000e+00
  1.137214046323e-02 -2.653294438185e-01 0.000000000000e+00
  9.933803619013e-03 -2.461068374462e-01 0.000000000000e+00
  9.252551301874e-03 -2.238320778549e-01 0.000000000000e+00
  9.433160764155e-03 -2.035221346242e-01 0.000000000000e+00
  1.047131957449e-02 -1.895250132186e-01 0.000000000000e+00
  1.223330108325e-02 -1.855016212759e-01 0.000000000000e+00
  1.444063517483e-02 -1.943630437332e-01 0.000000000000e+00
  1.668342142492e-02 -2.177419359864e-01 0.000000000000e+00
  1.847784560250e-02 -2.549833796479e-01 0.000000000000e+00
  1.936394204444e-02 -3.021645458696e-01 0.000000000000e+00
  1.901903814833e-02 -3.519268339740e-01 0.000000000000e+00
  1.735082402159e-02 -3.946607630992e-01 0.000000000000e+00
  1.453688866952e-02 -4.208879348409e-01 0.000000000000e+00
  1.099346322920e-02 -4.239603319793e-01 0.000000000000e+00
  7.278329294731e-03 -4.019512743482e-01 0.000000000000e+00
  3.952967583618e-03 -3.580328805418e-01 0.000000000000e+00
  1.440723351025e-03 -2.994191483372e-01 0.000000000000e+00
  -8.118004302140e-05 -2.355460088365e-01 0.000000000000e+00
  -7.263858426222e-04 -1.762089829094e-01 0.000000000000e+00
  -8.669832183329e-04 -1.300065364695e-01 0.000000000000e+00
  -1.029896182342e-03 -1.030767712419e-01 0.000000000000e+00
  -1.748861495422e-03 -9.809276277460e-02 0.000000000000e+00
  -3.414701718876e-03 -1.137328356713e-01 0.000000000000e+00
  -6.170339534050e-03 -1.450110735889e-01 0.000000000000e+00
  -9.883695805441e-03 -1.846552063843e-01 0.000000000000e+00
  -1.420379494125e-02 -2.252110687138e-01 0.000000000000e+00
  -1.867427628741e-02 -2.610854210069e-01 0.000000000000e+00
  -2.285889016260e-02 -2.896608934508e-01 0.000000000000e+00
  -2.643495828523e-02 -3.110123084102e-01 0.000000000000e+00
  -2.923121813725e-02 -3.264095079128e-01 0.000000000000e+00
  -3.121381773153e-02 -3.363648425864e-01 0.000000000000e+00
  -3.244399727565e-02 -3.391992573552e-01 0.000000000000e+00
  -3.303479511275e-02 -3.308658570967e-01 0.000000000000e+00
  -3.312339014138e-02 -3.061914859644e-01 0.000000000000e+00
  -3.285945657777e-02 -2.610395077646e-01 0.000000000000e+00
  -3.239873764837e-02 -1.944698033343e-01 0.000000000000e+00
  -3.189083915084e-02 -1.099694621241e-01 0.000000000000e+00
  -3.145899437296e-02 -1.522012401263e-02 0.000000000000e+00
  -3.117918945431e-02 7.955874119738e-02 0.000000000000e+00
  -3.106859752764e-02 1.641403178289e-01 0.000000000000e+00
  -3.108713513036e-02 2.308462116816e-01 0.000000000000e+00
  -3.114703965724e-02 2.762541517208e-01 0.000000000000e+00
  -3.112191745398e-02 3.014548685088e-01 0.000000000000e+00
  -3.085210846520e-02 3.107856464168e-01 0.000000000000e+00
  -3.015301904289e-02 3.095913567265e-01 0.000000000000e+00
  -2.883859787025e-02 3.019952535402e-01 0.000000000000e+00
  -2.676713659306e-02 2.896554040878e-01 0.000000000000e+00
  -2.390194654676e-02 2.720105657884e-01 0.000000000000e+00
  -2.036312611613e-02 2.478072917620e-01 0.000000000000e+00
  -1.643941255738e-02 2.170942266522e-01 0.000000000000e+00
  -1.253859337181e-02 1.826541367421e-01 0.000000000000e+00
  -9.080060757821e-03 1.501194680231e-01 0.000000000000e+00
  -6.362680472491e-03 1.266590329929e-01 0.000000000000e+00
  -4.458982025716e-03 1.188181920188e-01 0.000000000000e+00
  -3.181161404195e-03 1.304721503832e-01 0.000000000000e+00
  -2.136635029117e-03 1.617007528789e-01 0.000000000000e+00
  -8.547001637325e-04 2.088316121332e-01 0.000000000000e+00
  1.060884468471e-03 2.653239052088e-01 0.000000000000e+00
  3.804726913109e-03 3.229633891867e-01 0.000000000000e+00
  7.305644558719e-03 3.730698892709e-01 0.000000000000e+00
  1.123913756810e-02 4.077664839813e-01 0.000000000000e+00
  1.510693141412e-02 4.214253336070e-01 0.000000000000e+00
  1.835839213014e-02 4.120878062946e-01 0.000000000000e+00
  2.052183999040e-02 3.822688142153e-01 0.000000000000e+00
  2.131432358137e-02 3.385414321720e-01 0.000000000000e+00
  2.070474615851e-02 2.898061916964e-01 0.000000000000e+00
  1.891659730763e-02 2.448620416814e-01 0.000000000000e+00
  1.637162659699e-02 2.102851396993e-01 0.000000000000e+00
  1.359136897048e-02 1.893973811365e-01 0.000000000000e+00
  1.108461302999e-02 1.824474502124e-01 0.000000000000e+00
  9.251173391320e-03 1.875080054990e-01 0.000000000000e+00
  8.324054990398e-03 2.013976474194e-01 0.000000000000e+00
  8.356178764119e-03 2.202029131365e-01 0.000000000000e+00
  9.241342140421e-03 2.394387283770e-01 0.000000000000e+00
  1.075023837236e-02 2.542144661009e-01 0.000000000000e+00
  1.256565372653e-02 2.597797362881e-01 0.000000000000e+00
  1.431342717054e-02 2.525334376096e-01 0.000000000000e+00
  1.559795191950e-02 2.311788896976e-01 0.000000000000e+00
  1.605329954329e-02 1.974480433662e-01 0.000000000000e+00
  1.541092763542e-02 1.558899600972e-01 0.000000000000e+00
  1.356922883333e-02 1.126326138970e-01 0.000000000000e+00
  1.064017787424e-02 7.356567111593e-02 0.000000000000e+00
  6.951520361732e-03 4.271973859658e-02 0.000000000000e+00
  2.997919911185e-03 2.150790576694e-02 0.000000000000e+00
  -6.474232666464e-04 9.009067809629e-03 0.000000000000e+00
  -3.437436509139e-03 2.925041375877e-03 0.000000000000e+00
  -4.947752577395e-03 5.745439104070e-04 0.000000000000e+00
  0.000000000000e+00 0.000000000000e+00 0.000000000000e+00
  0.000000000000e+00 0.000000000000e+00 0.000000000000e+00
  8.604511105879e-03 -3.972708302159e-03 0.000000000000e+00
  1.303187941711e-02 -1.303187941711e-02 0.000000000000e+00
  2.103687630802e-02 -2.551341791200e-02 0.000000000000e+00
  3.110471177579e-02 -4.376148754976e-02 0.000000000000e+00
  4.138371211905e-02 -6.963171620779e-02 0.000000000000e+00
  5.008183863304e-02 -1.035786068456e-01 0.000000000000e+00
  5.583721906836e-02 -1.438172206875e-01 0.000000000000e+00
  5.797123096930e-02 -1.861521564295e-01 0.000000000000e+00
  5.656267259015e-02 -2.248111972575e-01 0.000000000000e+00
  5.233549442486e-02 -2.540882789962e-01 0.000000000000e+00
  4.641373875605e-02 -2.701196980335e-01 0.000000000000e+00
  4.003852758066e-02 -2.720124685203e-01 0.000000000000e+00
  3.434004885783e-02 -2.618890284238e-01 0.000000000000e+00
  3.021151628307e-02 -2.439803834219e-01 0.000000000000e+00
  2.826883823826e-02 -2.233346015173e-01 0.000000000000e+00
  2.883866921219e-02 -2.047700513980e-01 0.000000000000e+00
  3.192362198543e-02 -1.924002080283e-01 0.000000000000e+00
  3.713933171195e-02 -1.896041177015e-01 0.000000000000e+00
  4.366985774941e-02 -1.989984074367e-01 0.000000000000e+00
  5.030934349968e-02 -2.219888442833e-01 0.000000000000e+00
  5.563376311969e-02 -2.578553151486e-01 0.000000000000e+00
  5.828968162964e-02 -3.028346253208e-01 0.000000000000e+00
  5.732726263466e-02 -3.499494316317e-01 0.000000000000e+00
  5.247196177767e-02 -3.901146504578e-01 0.000000000000e+00
  4.423873692055e-02 -4.143868872732e-01 0.000000000000e+00
  3.383981380635e-02 -4.165190309926e-01 0.000000000000e+00
  2.290206370467e-02 -3.947396912988e-01 0.000000000000e+00
  1.306792285557e-02 -3.520849610310e-01 0.000000000000e+00
  5.586234285472e-03 -2.953731350453e-01 0.000000000000e+00
  1.000767989102e-03 -2.334846524380e-01 0.000000000000e+00
  -9.809785001282e-04 -1.756433870190e-01 0.000000000000e+00
  -1.399882209360e-03 -1.300126312747e-01 0.000000000000e+00
  -1.754593478770e-03 -1.025530522028e-01 0.000000000000e+00
  -3.582434855081e-03 -9.606967512344e-02 0.000000000000e+00
  -8.031244778319e-03 -1.096412731741e-01 0.000000000000e+00
  -1.555385736040e-02 -1.388243856859e-01 0.000000000000e+00
  -2.582144953359e-02 -1.768609458377e-01 0.000000000000e+00
  -3.787443878050e-02 -2.166322408693e-01 0.000000000000e+00
  -5.044071382583e-02 -2.526274924467e-01 0.000000000000e+00
  -6.229296956166e-02 -2.820819523805e-01 0.000000000000e+00
  -7.251821473920e-02 -3.047899361528e-01 0.000000000000e+00
  -8.062916358928e-02 -3.217246714309e-01 0.000000000000e+00
  -8.652556168566e-02 -3.331706813298e-01 0.000000000000e+00
  -9.037183088990e-02 -3.373169698051e-01 0.000000000000e+00
  -9.247044984185e-02 -3.300587277907e-01 0.000000000000e+00
  -9.318099493852e-02 -3.061994750727e-01 0.000000000000e+00
  -9.288799097592e-02 -2.615884561096e-01 0.000000000000e+00
  -9.198734181775e-02 -1.952822230094e-01 0.000000000000e+00
  -9.085891161248e-02 -1.107933710960e-01 0.000000000000e+00
  -8.981682798587e-02 -1.587014340689e-02 0.000000000000e+00
  -8.905646528715e-02 7.916859299094e-02 0.000000000000e+00
  -8.862489762876e-02 1.639883064434e-01 0.000000000000e+00
  -8.842497571648e-02 2.308168387279e-01 0.000000000000e+00
  -8.823876446973e-02 2.761572179056e-01 0.000000000000e+00
  -8.774724986190e-02 3.010351654496e-01 0.000000000000e+00
  -8.653930678791e-02 3.097275973418e-01 0.000000000000e+00
  -8.413079592916e-02 3.075418054471e-01 0.000000000000e+00
  -8.002929797481e-02 2.986288856228e-01 0.000000000000e+00
  -7.386404983286e-02 2.847850625238e-01 0.000000000000e+00
  -6.555771863258e-02 2.657093860534e-01 0.000000000000e+00
  -5.547040716986e-02 2.404823395619e-01 0.000000000000e+00
  -4.442768463530e-02 2.094527427275e-01 0.000000000000e+00
  -3.357389754433e-02 1.755410143676e-01 0.000000000000e+00
  -2.406467195608e-02 1.442648321798e-01 0.000000000000e+00
  -1.669553622464e-02 1.224271528093e-01 0.000000000000e+00
  -1.161130086752e-02 1.160621383922e-01 0.000000000000e+00
  -8.222092183029e-03 1.285611747001e-01 0.000000000000e+00
  -5.371845123796e-03 1.597169551256e-01 0.000000000000e+00
  -1.703552781254e-03 2.058651826774e-01 0.000000000000e+00
  3.907516061591e-03 2.607636811890e-01 0.000000000000e+00
  1.199627058882e-02 3.166910162344e-01 0.000000000000e+00
  2.232980487546e-02 3.655078102908e-01 0.000000000000e+00
  3.394597870153e-02 3.997788961259e-01 0.000000000000e+00
  4.538193084154e-02 4.141091754764e-01 0.000000000000e+00
  5.502284847428e-02 4.065115860765e-01 0.000000000000e+00
  6.148159590481e-02 3.792228391426e-01 0.000000000000e+00
  6.391933512577e-02 3.383571844327e-01 0.000000000000e+00
  6.223313170652e-02 2.922862202779e-01 0.000000000000e+00
  5.706803368184e-02 2.493352599755e-01 0.000000000000e+00
  4.965507944704e-02 2.157698463506e-01 0.000000000000e+00
  4.152333585126e-02 1.948246757075e-01 0.000000000000e+00
  3.416825033307e-02 1.868819971001e-01 0.000000000000e+00
  2.876635022422e-02 1.903087983588e-01 0.000000000000e+00
  2.600256253603e-02 2.022877606487e-01 0.000000000000e+00
  2.602970866705e-02 2.192535300024e-01 0.000000000000e+00
  2.853089221483e-02 2.370017645869e-01 0.000000000000e+00
  3.282869743955e-02 2.508447284343e-01 0.000000000000e+00
  3.799362893945e-02 2.561691271006e-01 0.000000000000e+00
  4.293969399682e-02 2.494502082957e-01 0.000000000000e+00
  4.653037962298e-02 2.293869086365e-01 0.000000000000e+00
  4.772575076490e-02 1.975893056617e-01 0.000000000000e+00
  4.577346397215e-02 1.583433565023e-01 0.000000000000e+00
  4.040246031938e-02 1.173919199468e-01 0.000000000000e+00
  3.195012033508e-02 8.018775600957e-02 0.000000000000e+00
  2.136307533743e-02 5.037335621310e-02 0.000000000000e+00
  1.005456533128e-02 2.911639860711e-02 0.000000000000e+00
  -3.476677069321e-04 1.544815118550e-02 0.000000000000e+00
  -8.296542532778e-03 7.224846068348e-03 0.000000000000e+00
  -1.259551562128e-02 2.084028374698e-03 0.000000000000e+00
  0.000000000000e+00 0.000000000000e+00 0.000000000000e+00
  0.000000000000e+00 0.000000000000e+00 0.000000000000e+00
  1.908804593439e-02 -6.820451700089e-03 0.000000000000e+00
  2.551341791200e-02 -2.103687630802e-02 0.000000000000e+00
  3.717351621126e-02 -3.717351621126e-02 0.000000000000e+00
  5.193000392413e-02 -5.692571243113e-02 0.000000000000e+00
  6.713616785453e-02 -8.195265560007e-02 0.000000000000e+00
  8.018280251422e-02 -1.130024286270e-01 0.000000000000e+00
  8.902875696841e-02 -1.489947337956e-01 0.000000000000e+00
  9.258673153610e-02 -1.866666297900e-01 0.000000000000e+00
  9.086610818227e-02 -2.211675421640e-01 0.000000000000e+00
  8.484643212767e-02 -2.474850798699e-01 0.000000000000e+00
  7.614577424780e-02 -2.621004836112e-01 0.000000000000e+00
  6.661540574194e-02 -2.641261032613e-01 0.000000000000e+00
  5.799724460774e-02 -2.554587538257e-01 0.000000000000e+00
  5.171797887046e-02 -2.400028597080e-01 0.000000000000e+00
  4.880211960512e-02 -2.224535879211e-01 0.000000000000e+00
  4.982512056670e-02 -2.072438969298e-01 0.000000000000e+00
  5.483603713750e-02 -1.980222318406e-01 0.000000000000e+00
  6.324698895159e-02 -1.976087554298e-01 0.000000000000e+00
  7.376309759764e-02 -2.080404043919e-01 0.000000000000e+00
  8.445659546937e-02 -2.302798309501e-01 0.000000000000e+00
  9.304926090149e-02 -2.634814135339e-01 0.000000000000e+00
  9.737787513444e-02 -3.041930596784e-01 0.000000000000e+00
  9.592473105089e-02 -3.461754341956e-01 0.000000000000e+00
  8.824582088388e-02 -3.813544368699e-01 0.000000000000e+00
  7.514695928476e-02 -4.018150144048e-01 0.000000000000e+00
  5.853494951494e-02 -4.020799709769e-01 0.000000000000e+00
  4.097394013780e-02 -3.806799918356e-01 0.000000000000e+00
  2.506583320091e-02 -3.404024127082e-01 0.000000000000e+00
  1.281962086994e-02 -2.873277824670e-01 0.000000000000e+00
  5.171516516716e-03 -2.292964343665e-01 0.000000000000e+00
  1.776457451347e-03 -1.744547995353e-01 0.000000000000e+00
  1.126624763352e-03 -1.301324823598e-01 0.000000000000e+00
  9.742312330242e-04 -1.019260963151e-01 0.000000000000e+00
  -1.046504024701e-03 -9.284805437144e-02 0.000000000000e+00
  -6.770802422495e-03 -1.026897855945e-01 0.000000000000e+00
  -1.702406768046e-02 -1.279999954065e-01 0.000000000000e+00
  -3.146202904294e-02 -1.629797825490e-01 0.000000000000e+00
  -4.876920076499e-02 -2.011532431364e-01 0.000000000000e+00
  -6.712045038479e-02 -2.371889654329e-01 0.000000000000e+00
  -8.471695254268e-02 -2.680717213799e-01 0.000000000000e+00
  -1.002014716892e-01 -2.930904026593e-01 0.000000000000e+00
  -1.128379027359e-01 -3.126768247996e-01 0.000000000000e+00
  -1.224586265585e-01 -3.267014057515e-01 0.000000000000e+00
  -1.292767413409e-01 -3.331218610454e-01 0.000000000000e+00
  -1.336865699190e-01 -3.277453886183e-01 0.000000000000e+00
  -1.361351527575e-01 -3.053536858773e-01 0.000000000000e+00
  -1.370760673956e-01 -2.617863341948e-01 0.000000000000e+00
  -1.369623137790e-01 -1.960987472974e-01 0.000000000000e+00
  -1.362267040805e-01 -1.118408863802e-01 0.000000000000e+00
  -1.352310633174e-01 -1.686035228410e-02 0.000000000000e+00
  -1.342061258746e-01 7.837350182741e-02 0.000000000000e+00
  -1.332173496224e-01 1.633630536587e-01 0.000000000000e+00
  -1.321696764487e-01 2.301944962544e-01 0.000000000000e+00
  -1.308308918384e-01 2.752545642339e-01 0.000000000000e+00
  -1.288431126525e-01 2.994585249535e-01 0.000000000000e+00
  -1.257180070148e-01 3.069711887020e-01 0.000000000000e+00
  -1.208526133490e-01 3.030243091245e-01 0.000000000000e+00
  -1.136210023956e-01 2.918132726183e-01 0.000000000000e+00
  -1.035679495050e-01 2.753823741191e-01 0.000000000000e+00
  -9.066292987441e-02 2.539007233081e-01 0.000000000000e+00
  -7.550465932312e-02 2.270454200369e-01 0.000000000000e+00
  -5.934464865377e-02 1.956869288530e-01 0.000000000000e+00
  -4.384978604971e-02 1.629581784051e-01 0.000000000000e+00
  -3.063618201592e-02 1.341248384222e-01 0.000000000000e+00
  -2.072706271845e-02 1.152888914734e-01 0.000000000000e+00
  -1.414963449148e-02 1.115387361034e-01 0.000000000000e+00
  -9.848560357870e-03 1.253942941464e-01 0.000000000000e+00
  -5.970376527576e-03 1.561554047758e-01 0.000000000000e+00
  -4.255859822637e-04 2.002136501317e-01 0.000000000000e+00
  8.465119956268e-03 2.519134389493e-01 0.000000000000e+00
  2.144824914458e-02 3.044693747566e-01 0.000000000000e+00
  3.808450494860e-02 3.507596616771e-01 0.000000000000e+00
  5.681555252227e-02 3.841798233395e-01 0.000000000000e+00
  7.531247344159e-02 3.997753752033e-01 0.000000000000e+00
  9.100791699084e-02 3.955090251675e-01 0.000000000000e+00
  1.016830874831e-01 3.730914821288e-01 0.000000000000e+00
  1.059737497895e-01 3.377601399192e-01 0.000000000000e+00
  1.036764116116e-01 2.968668063885e-01 0.000000000000e+00
  9.578034497285e-02 2.578158385283e-01 0.000000000000e+00
  8.422021464220e-02 2.262623523633e-01 0.000000000000e+00
  7.142124252149e-02 2.052628854113e-01 0.000000000000e+00
  5.976743416121e-02 1.954526812748e-01 0.000000000000e+00
  5.113900973032e-02 1.957684387239e-01 0.000000000000e+00
  4.662888665221e-02 2.041020310500e-01 0.000000000000e+00
  4.647365195772e-02 2.175673481647e-01 0.000000000000e+00
  5.015545458680e-02 2.325049602478e-01 0.000000000000e+00
  5.658612852961e-02 2.446130536059e-01 0.000000000000e+00
  6.429495524230e-02 2.495270437165e-01 0.000000000000e+00
  7.159458042358e-02 2.438466014411e-01 0.000000000000e+00
  7.675453122130e-02 2.262398790671e-01 0.000000000000e+00
  7.822585497112e-02 1.980696403393e-01 0.000000000000e+00
  7.492131751156e-02 1.631198460770e-01 0.000000000000e+00
  6.649178220146e-02 1.264159693350e-01 0.000000000000e+00
  5.349901922010e-02 9.260880958703e-02 0.000000000000e+00
  3.740030160809e-02 6.463806524530e-02 0.000000000000e+00
  2.032420936171e-02 4.323629182744e-02 0.000000000000e+00
  4.692179456902e-03 2.736252090820e-02 0.000000000000e+00
  -7.214212446731e-03 1.516574307513e-02 0.000000000000e+00
  -1.364124460772e-02 4.869136617409e-03 0.000000000000e+00
  0.000000000000e+00 0.000000000000e+00 0.000000000000e+00
  0.000000000000e+00 0.000000000000e+00 0.000000000000e+00
  3.654849791936e-02 -1.039097784033e-02 0.000000000000e+00
  4.376148754976e-02 -3.110471177579e-02 0.000000000000e+00
  5.692571243113e-02 -5.193000392413e-02 0.000000000000e+00
  7.374655969325e-02 -7.374655969325e-02 0.000000000000e+00
  9.132483138260e-02 -9.791624395768e-02 0.000000000000e+00
  1.067169938981e-01 -1.254776374446e-01 0.000000000000e+00
  1.175170434741e-01 -1.561655290082e-01 0.000000000000e+00
  1.223212476342e-01 -1.878580133053e-01 0.000000000000e+00
  1.209505108049e-01 -2.168847984655e-01 0.000000000000e+00
  1.143739981575e-01 -2.391716348664e-01 0.000000000000e+00
  1.043818378064e-01 -2.517211103836e-01 0.000000000000e+00
  9.314252491864e-02 -2.537357950953e-01 0.000000000000e+00
  8.279964807028e-02 -2.468880240092e-01 0.000000000000e+00
  7.519983175406e-02 -2.346945074710e-01 0.000000000000e+00
  7.174173777035e-02 -2.213879869090e-01 0.000000000000e+00
  7.326560270177e-02 -2.108563638349e-01 0.000000000000e+00
  7.991222372906e-02 -2.060673025336e-01 0.000000000000e+00
  9.095921558757e-02 -2.090216284094e-01 0.000000000000e+00
  1.047305236021e-01 -2.209149480728e-01 0.000000000000e+00
  1.187063800964e-01 -2.420746416352e-01 0.000000000000e+00
  1.299070167903e-01 -2.714799049748e-01 0.000000000000e+00
  1.355089808765e-01 -3.061251465566e-01 0.000000000000e+00