# vtk DataFile Version 3.0
Karman Output
ASCII
DATASET RECTILINEAR_GRID
DIMENSIONS 101 101 1
X_COORDINATES 101 float
   0.000000000000e+00   9.900990099010e-03   1.980198019802e-02   2.970297029703e-02   3.960396039604e-02   4.950495049505e-02   5.940594059406e-02   6.930693069307e-02   7.920792079208e-02   8.910891089109e-02   9.900990099010e-02   1.089108910891e-01   1.188118811881e-01   1.287128712871e-01   1.386138613861e-01   1.485148514851e-01   1.584158415842e-01   1.683168316832e-01   1.782178217822e-01   1.881188118812e-01   1.980198019802e-01   2.079207920792e-01   2.178217821782e-01   2.277227722772e-01   2.376237623762e-01   2.475247524752e-01   2.574257425743e-01   2.673267326733e-01   2.772277227723e-01   2.871287128713e-01   2.970297029703e-01   3.069306930693e-01   3.168316831683e-01   3.267326732673e-01   3.366336633663e-01   3.465346534653e-01   3.564356435644e-01   3.663366336634e-01   3.762376237624e-01   3.861386138614e-01   3.960396039604e-01   4.059405940594e-01   4.158415841584e-01   4.257425742574e-01   4.356435643564e-01   4.455445544554e-01   4.554455445545e-01   4.653465346535e-01   4.752475247525e-01   4.851485148515e-01   4.950495049505e-01   5.049504950495e-01   5.148514851485e-01   5.247524752475e-01   5.346534653465e-01   5.445544554455e-01   5.544554455446e-01   5.643564356436e-01   5.742574257426e-01   5.841584158416e-01   5.940594059406e-01   6.039603960396e-01   6.138613861386e-01   6.237623762376e-01   6.336633663366e-01   6.435643564356e-01   6.534653465347e-01   6.633663366337e-01   6.732673267327e-01   6.831683168317e-01   6.930693069307e-01   7.029702970297e-01   7.128712871287e-01   7.227722772277e-01   7.326732673267e-01   7.425742574257e-01   7.524752475248e-01   7.623762376238e-01   7.722772277228e-01   7.821782178218e-01   7.920792079208e-01   8.019801980198e-01   8.118811881188e-01   8.217821782178e-01   8.316831683168e-01   8.415841584158e-01   8.514851485149e-01   8.613861386139e-01   8.712871287129e-01   8.811881188119e-01   8.910891089109e-01   9.009900990099e-01   9.108910891089e-01   9.207920792079e-01   9.306930693069e-01   9.405940594059e-01   9.504950495050e-01   9.603960396040e-01   9.702970297030e-01   9.801980198020e-01   9.900990099010e-01
Y_COORDINATES 101 float
   0.000000000000e+00   9.900990099010e-03   1.980198019802e-02   2.970297029703e-02   3.960396039604e-02   4.950495049505e-02   5.940594059406e-02   6.930693069307e-02   7.920792079208e-02   8.910891089109e-02   9.900990099010e-02   1.089108910891e-01   1.188118811881e-01   1.287128712871e-01   1.386138613861e-01   1.485148514851e-01   1.584158415842e-01   1.683168316832e-01   1.782178217822e-01   1.881188118812e-01   1.980198019802e-01   2.079207920792e-01   2.178217821782e-01   2.277227722772e-01   2.376237623762e-01   2.475247524752e-01   2.574257425743e-01   2.673267326733e-01   2.772277227723e-01   2.871287128713e-01   2.970297029703e-01   3.069306930693e-01   3.168316831683e-01   3.267326732673e-01   3.366336633663e-01   3.465346534653e-01   3.564356435644e-01   3.663366336634e-01   3.762376237624e-01   3.861386138614e-01   3.960396039604e-01   4.059405940594e-01   4.158415841584e-01   4.257425742574e-01   4.356435643564e-01   4.455445544554e-01   4.554455445545e-01   4.653465346535e-01   4.752475247525e-01   4.851485148515e-01   4.950495049505e-01   5.049504950495e-01   5.148514851485e-01   5.247524752475e-01   5.346534653465e-01   5.445544554455e-01   5.544554455446e-01   5.643564356436e-01   5.742574257426e-01   5.841584158416e-01   5.940594059406e-01   6.039603960396e-01   6.138613861386e-01   6.237623762376e-01   6.336633663366e-01   6.435643564356e-01   6.534653465347e-01   6.633663366337e-01   6.732673267327e-01   6.831683168317e-01   6.930693069307e-01   7.029702970297e-01   7.128712871287e-01   7.227722772277e-01   7.326732673267e-01   7.425742574257e-01   7.524752475248e-01   7.623762376238e-01   7.722772277228e-01   7.821782178218e-01   7.920792079208e-01   8.019801980198e-01   8.118811881188e-01   8.217821782178e-01   8.316831683168e-01   8.415841584158e-01   8.514851485149e-01   8.613861386139e-01   8.712871287129e-01   8.811881188119e-01   8.910891089109e-01   9.009900990099e-01   9.108910891089e-01   9.207920792079e-01   9.306930693069e-01   9.405940594059e-01   9.504950495050e-01   9.603960396040e-01   9.702970297030e-01   9.801980198020e-01   9.900990099010e-01
Z_COORDINATES 1 float
  0.000000000000e+00
POINT_DATA 10201
VECTORS E_field float
  0.000000000000e+00 0.000000000000e+00 0.000000000000e+00
  0.000000000000e+00 0.000000000000e+00 0.000000000000e+00
  0.000000000000e+00 0.000000000000e+00 0.000000000000e+00
  0.000000000000e+00 0.000000000000e+00 0.000000000000e+00
  0.000000000000e+00 0.000000000000e+00 0.000000000000e+00
  0.000000000000e+00 0.000000000000e+00 0.000000000000e+00
  0.000000000000e+00 0.000000000000e+00 0.000000000000e+00
  0.000000000000e+00 0.000000000000e+00 0.000000000000e+00
  0.000000000000e+00 0.000000000000e+00 0.000000000000e+00
  0.000000000000e+00 0.000000000000e+00 0.000000000000e+00
  0.000000000000e+00 0.000000000000e+00 0.000000000000e+00
  0.000000000000e+00 0.000000000000e+00 0.000000000000e+00
  0.000000000000e+00 0.000000000000e+00 0.000000000000e+00
  0.000000000000e+00 0.000000000000e+00 0.000000000000e+00
  0.000000000000e+00 0.000000000000e+00 0.000000000000e+00
  0.000000000000e+00 0.000000000000e+00 0.000000000000e+00
  0.000000000000e+00 0.000000000000e+00 0.000000000000e+00
  0.000000000000e+00 0.000000000000e+00 0.000000000000e+00
  0.000000000000e+00 0.000000000000e+00 0.000000000000e+00
  0.000000000000e+00 0.000000000000e+00 0.000000000000e+00
  0.000000000000e+00 0.000000000000e+00 0.000000000000e+00
  0.000000000000e+00 0.000000000000e+00 0.000000000000e+00
  0.000000000000e+00 0.000000000000e+00 0.000000000000e+00
  0.000000000000e+00 0.000000000000e+00 0.000000000000e+00
  0.000000000000e+00 0.000000000000e+00 0.000000000000e+00
  0.000000000000e+00 0.000000000000e+00 0.000000000000e+00
  0.000000000000e+00 0.000000000000e+00 0.000000000000e+00
  0.000000000000e+00 0.000000000000e+00 0.000000000000e+00
  0.000000000000e+00 0.000000000000e+00 0.000000000000e+00
  0.000000000000e+00 0.000000000000e+00 0.000000000000e+00
  0.000000000000e+00 0.000000000000e+00 0.000000000000e+00
  0.000000000000e+00 0.000000000000e+00 0.000000000000e+00
  0.000000000000e+00 0.000000000000e+00 0.000000000000e+00
  0.000000000000e+00 0.000000000000e+00 0.000000000000e+00
  0.000000000000e+00 0.000000000000e+00 0.000000000000e+00
  0.000000000000e+00 0.000000000000e+00 0.000000000000e+00
  0.000000000000e+00 0.000000000000e+00 0.000000000000e+00
  0.000000000000e+00 0.000000000000e+00 0.000000000000e+00
  0.000000000000e+00 0.000000000000e+00 0.000000000000e+00
  0.000000000000e+00 0.000000000000e+00 0.000000000000e+00
  0.000000000000e+00 0.000000000000e+00 0.000000000000e+00
  0.000000000000e+00 0.000000000000e+00 0.000000000000e+00
  0.000000000000e+00 0.000000000000e+00 0.000000000000e+00
  0.000000000000e+00 0.000000000000e+00 0.000000000000e+00
  0.000000000000e+00 0.000000000000e+00 0.000000000000e+00
  0.000000000000e+00 0.000000000000e+00 0.000000000000e+00
  0.000000000000e+00 0.000000000000e+00 0.000000000000e+00
  0.000000000000e+00 0.000000000000e+00 0.000000000000e+00
  0.000000000000e+00 0.000000000000e+00 0.000000000000e+00
  0.000000000000e+00 0.000000000000e+00 0.000000000000e+00
  0.000000000000e+00 0.000000000000e+00 0.000000000000e+00
  0.000000000000e+00 0.000000000000e+00 0.000000000000e+00
  0.000000000000e+00 0.000000000000e+00 0.000000000000e+00
  0.000000000000e+00 0.000000000000e+00 0.000000000000e+00
  0.000000000000e+00 0.000000000000e+00 0.000000000000e+00
  0.000000000000e+00 0.000000000000e+00 0.000000000000e+00
  0.000000000000e+00 0.000000000000e+00 0.000000000000e+00
  0.000000000000e+00 0.000000000000e+00 0.000000000000e+00
  0.000000000000e+00 0.000000000000e+00 0.000000000000e+00
  0.000000000000e+00 0.000000000000e+00 0.000000000000e+00
  0.000000000000e+00 0.000000000000e+00 0.000000000000e+00
  0.000000000000e+00 0.000000000000e+00 0.000000000000e+00
  0.000000000000e+00 0.000000000000e+00 0.000000000000e+00
  0.000000000000e+00 0.000000000000e+00 0.000000000000e+00
  0.000000000000e+00 0.000000000000e+00 0.000000000000e+00
  0.000000000000e+00 0.000000000000e+00 0.000000000000e+00
  0.000000000000e+00 0.000000000000e+00 0.000000000000e+00
  0.000000000000e+00 0.000000000000e+00 0.000000000000e+00
  0.000000000000e+00 0.000000000000e+00 0.000000000000e+00
  0.000000000000e+00 0.000000000000e+00 0.000000000000e+00
  0.000000000000e+00 0.000000000000e+00 0.000000000000e+00
  0.000000000000e+00 0.000000000000e+00 0.000000000000e+00
  0.000000000000e+00 0.000000000000e+00 0.000000000000e+00
  0.000000000000e+00 0.000000000000e+00 0.000000000000e+00
  0.000000000000e+00 0.000000000000e+00 0.000000000000e+00
  0.000000000000e+00 0.000000000000e+00 0.000000000000e+00
  0.000000000000e+00 0.000000000000e+00 0.000000000000e+00
  0.000000000000e+00 0.000000000000e+00 0.000000000000e+00
  0.000000000000e+00 0.000000000000e+00 0.000000000000e+00
  0.000000000000e+00 0.000000000000e+00 0.000000000000e+00
  0.000000000000e+00 0.000000000000e+00 0.000000000000e+00
  0.000000000000e+00 0.000000000000e+00 0.000000000000e+00
  0.000000000000e+00 0.000000000000e+00 0.000000000000e+00
  0.000000000000e+00 0.000000000000e+00 0.000000000000e+00
  0.000000000000e+00 0.000000000000e+00 0.000000000000e+00
  0.000000000000e+00 0.000000000000e+00 0.000000000000e+00
  0.000000000000e+00 0.000000000000e+00 0.000000000000e+00
  0.000000000000e+00 0.000000000000e+00 0.000000000000e+00
  0.000000000000e+00 0.000000000000e+00 0.000000000000e+00
  0.000000000000e+00 0.000000000000e+00 0.000000000000e+00
  0.000000000000e+00 0.000000000000e+00 0.000000000000e+00
  0.000000000000e+00 0.000000000000e+00 0.000000000000e+00
  0.000000000000e+00 0.000000000000e+00 0.000000000000e+00
  0.000000000000e+00 0.000000000000e+00 0.000000000000e+00
  0.000000000000e+00 0.000000000000e+00 0.000000000000e+00
  0.000000000000e+00 0.000000000000e+00 0.000000000000e+00
  0.000000000000e+00 0.000000000000e+00 0.000000000000e+00
  0.000000000000e+00 0.000000000000e+00 0.000000000000e+00
  0.000000000000e+00 0.000000000000e+00 0.000000000000e+00
  0.000000000000e+00 0.000000000000e+00 0.000000000000e+00
  0.000000000000e+00 0.000000000000e+00 0.000000000000e+00
  0.000000000000e+00 0.000000000000e+00 0.000000000000e+00
  -2.133217947328e-02 2.133217947328e-02 0.000000000000e+00
  -2.083272637610e-02 6.234076887632e-02 0.000000000000e+00
  -1.976338680329e-02 9.802752776051e-02 0.000000000000e+00
  -1.803937053979e-02 1.240481193162e-01 0.000000000000e+00
  -1.563972506980e-02 1.359287407162e-01 0.000000000000e+00
  -1.266226888488e-02 1.303502754615e-01 0.000000000000e+00
  -9.327048714146e-03 1.065356392533e-01 0.000000000000e+00
  -5.931950237421e-03 6.705251878301e-02 0.000000000000e+00
  -2.788406091691e-03 1.766595307450e-02 0.000000000000e+00
  -1.680586375375e-04 -3.371197711424e-02 0.000000000000e+00
  1.724335859400e-03 -7.864946983398e-02 0.000000000000e+00
  2.755914715476e-03 -1.099631161703e-01 0.000000000000e+00
  2.862462522783e-03 -1.231883902033e-01 0.000000000000e+00
  2.047354673740e-03 -1.173987307229e-01 0.000000000000e+00
  3.832626403764e-04 -9.520644832309e-02 0.000000000000e+00
  -1.990159403282e-03 -6.202550598571e-02 0.000000000000e+00
  -4.879739242460e-03 -2.485921661570e-02 0.000000000000e+00
  -8.065236607357e-03 9.102182146231e-03 0.000000000000e+00
  -1.133371319325e-02 3.388485879431e-02 0.000000000000e+00
  -1.451179608666e-02 4.600375149264e-02 0.000000000000e+00
  -1.748485868915e-02 4.538556247836e-02 0.000000000000e+00
  -2.019598829364e-02 3.557459831359e-02 0.000000000000e+00
  -2.262531626986e-02 2.286721480406e-02 0.000000000000e+00
  -2.475863426558e-02 1.436094002239e-02 0.000000000000e+00
  -2.655874361462e-02 1.547507430476e-02 0.000000000000e+00
  -2.795084460897e-02 2.794573785576e-02 0.000000000000e+00
  -2.882566624176e-02 4.924784618784e-02 0.000000000000e+00
  -2.905572820930e-02 7.376919578812e-02 0.000000000000e+00
  -2.851615514881e-02 9.518439859010e-02 0.000000000000e+00
  -2.710362298927e-02 1.088805272064e-01 0.000000000000e+00
  -2.475274921470e-02 1.133347416649e-01 0.000000000000e+00
  -2.145358726604e-02 1.099787017197e-01 0.000000000000e+00
  -1.727308640123e-02 1.018854382649e-01 0.000000000000e+00
  -1.237766185444e-02 9.210664338564e-02 0.000000000000e+00
  -7.047553059493e-03 8.245612840807e-02 0.000000000000e+00
  -1.671336503406e-03 7.312303683383e-02 0.000000000000e+00
  3.287458874012e-03 6.304795322403e-02 0.000000000000e+00
  7.352570979049e-03 5.076039760222e-02 0.000000000000e+00
  1.011960704998e-02 3.535530236579e-02 0.000000000000e+00
  1.134936679574e-02 1.730911806695e-02 0.000000000000e+00
  1.104761117965e-02 -1.190418406666e-03 0.000000000000e+00
  9.500679693732e-03 -1.669032343671e-02 0.000000000000e+00
  7.236616159790e-03 -2.570943606028e-02 0.000000000000e+00
  4.900172559801e-03 -2.630468133570e-02 0.000000000000e+00
  3.067426704907e-03 -1.914662263005e-02 0.000000000000e+00
  2.065383479115e-03 -7.401115270892e-03 0.000000000000e+00
  1.877488458395e-03 4.659674151346e-03 0.000000000000e+00
  2.189252317853e-03 1.363526700129e-02 0.000000000000e+00
  2.565300736051e-03 1.850176992286e-02 0.000000000000e+00
  2.681302069053e-03 2.082765789779e-02 0.000000000000e+00
  2.500283917132e-03 2.358837644727e-02 0.000000000000e+00
  2.305185821454e-03 2.921027630240e-02 0.000000000000e+00
  2.568951196762e-03 3.787140690466e-02 0.000000000000e+00
  3.723624958991e-03 4.696410131120e-02 0.000000000000e+00
  5.938005580408e-03 5.204574362470e-02 0.000000000000e+00
  9.004918329224e-03 4.883567908882e-02 0.000000000000e+00
  1.238156016355e-02 3.524810766853e-02 0.000000000000e+00
  1.535340180111e-02 1.242077757698e-02 0.000000000000e+00
  1.724288067599e-02 -1.574274930500e-02 0.000000000000e+00
  1.757983212837e-02 -4.418727291660e-02 0.000000000000e+00
  1.618452494400e-02 -6.859405159514e-02 0.000000000000e+00
  1.316009340992e-02 -8.667731822569e-02 0.000000000000e+00
  8.823190310182e-03 -9.849009767812e-02 0.000000000000e+00
  3.609881707818e-03 -1.058552432732e-01 0.000000000000e+00
  -2.014748382184e-03 -1.112926345415e-01 0.000000000000e+00
  -7.627145152185e-03 -1.168162840790e-01 0.000000000000e+00
  -1.288865144477e-02 -1.229301012666e-01 0.000000000000e+00
  -1.756043387618e-02 -1.281690575827e-01 0.000000000000e+00
  -2.149501799427e-02 -1.295008744179e-01 0.000000000000e+00
  -2.461544945659e-02 -1.236426478662e-01 0.000000000000e+00
  -2.689490761549e-02 -1.088658587972e-01 0.000000000000e+00
  -2.834501410351e-02 -8.643645925158e-02 0.000000000000e+00
  -2.901258509053e-02 -6.081709683140e-02 0.000000000000e+00
  -2.897772498105e-02 -3.828383302462e-02 0.000000000000e+00
  -2.834526436820e-02 -2.444531160208e-02 0.000000000000e+00
  -2.722673464282e-02 -2.180582633184e-02 0.000000000000e+00
  -2.571760162906e-02 -2.855858764959e-02 0.000000000000e+00
  -2.387941577442e-02 -3.917850658460e-02 0.000000000000e+00
  -2.173581702311e-02 -4.647932055002e-02 0.000000000000e+00
  -1.928548388592e-02 -4.415201042030e-02 0.000000000000e+00
  -1.652766368632e-02 -2.874623105715e-02 0.000000000000e+00
  -1.349091745752e-02 -5.170742230236e-04 0.000000000000e+00
  -1.025519659640e-02 3.684189459134e-02 0.000000000000e+00
  -6.960638761381e-03 7.719146884554e-02 0.000000000000e+00
  -3.801338625079e-03 1.132559468474e-01 0.000000000000e+00
  -1.006730003607e-03 1.380064653330e-01 0.000000000000e+00
  1.184317440259e-03 1.459976940540e-01 0.000000000000e+00
  2.551840885652e-03 1.345092259162e-01 0.000000000000e+00
  2.923326768048e-03 1.042526346268e-01 0.000000000000e+00
  2.202782770775e-03 5.940639750001e-02 0.000000000000e+00
  3.996926956927e-04 6.891726772173e-03 0.000000000000e+00
  -2.348619008355e-03 -4.497679625732e-02 0.000000000000e+00
  -5.774440219402e-03 -8.815678255899e-02 0.000000000000e+00
  -9.510125999915e-03 -1.164657893021e-01 0.000000000000e+00
  -1.315285453851e-02 -1.266881809991e-01 0.000000000000e+00
  -1.634536174002e-02 -1.188819200692e-01 0.000000000000e+00
  -1.883991418650e-02 -9.580185302292e-02 0.000000000000e+00
  -2.051650211655e-02 -6.172413336316e-02 0.000000000000e+00
  -2.134983614273e-02 -2.126159419428e-02 0.000000000000e+00
  0.000000000000e+00 0.000000000000e+00 0.000000000000e+00
  0.000000000000e+00 0.000000000000e+00 0.000000000000e+00
  -6.234076887632e-02 2.083272637610e-02 0.000000000000e+00
  -6.076325868578e-02 6.076325868578e-02 0.000000000000e+00
  -5.742594502653e-02 9.519838471899e-02 0.000000000000e+00
  -5.212385849975e-02 1.198511595675e-01 0.000000000000e+00
  -4.485029297226e-02 1.304524894675e-01 0.000000000000e+00
  -3.594785995809e-02 1.239466375111e-01 0.000000000000e+00
  -2.610854821771e-02 9.976474529256e-02 0.000000000000e+00
  -1.623457442422e-02 6.055434047352e-02 0.000000000000e+00
  -7.243057654756e-03 1.202907046880e-02 0.000000000000e+00
  9.343054775630e-05 -3.803193016520e-02 0.000000000000e+00
  5.223753222157e-03 -8.135223395436e-02 0.000000000000e+00
  7.823679831647e-03 -1.108918575155e-01 0.000000000000e+00
  7.771687426955e-03 -1.223142042607e-01 0.000000000000e+00
  5.129555465446e-03 -1.148156768549e-01 0.000000000000e+00
  1.347901244716e-04 -9.113064481672e-02 0.000000000000e+00
  -6.810422643160e-03 -5.678267468079e-02 0.000000000000e+00
  -1.517300371252e-02 -1.884988701210e-02 0.000000000000e+00
  -2.435299786026e-02 1.545834405526e-02 0.000000000000e+00
  -3.376797863814e-02 4.021215424905e-02 0.000000000000e+00
  -4.293432234446e-02 5.202088263762e-02 0.000000000000e+00
  -5.151766408632e-02 5.092483567773e-02 0.000000000000e+00
  -5.933312533118e-02 4.056191596356e-02 0.000000000000e+00
  -6.629509900756e-02 2.727119880669e-02 0.000000000000e+00
  -7.233837779403e-02 1.813355280195e-02 0.000000000000e+00
  -7.734504266582e-02 1.850923574604e-02 0.000000000000e+00
  -8.110657846141e-02 3.006521320442e-02 0.000000000000e+00
  -8.333096199432e-02 5.022757600488e-02 0.000000000000e+00
  -8.368279409440e-02 7.337136003870e-02 0.000000000000e+00
  -8.183462954772e-02 9.319449673236e-02 0.000000000000e+00
  -7.751418181378e-02 1.051374491707e-01 0.000000000000e+00
  -7.054764540318e-02 1.077604095155e-01 0.000000000000e+00
  -6.091019950728e-02 1.026164260247e-01 0.000000000000e+00
  -4.879081022970e-02 9.294782381798e-02 0.000000000000e+00
  -3.466112358810e-02 8.201914664508e-02 0.000000000000e+00
  -1.931976607648e-02 7.187215884369e-02 0.000000000000e+00
  -3.877572424991e-03 6.288859619358e-02 0.000000000000e+00
  1.033934468499e-02 5.410668138197e-02 0.000000000000e+00
  2.197032998038e-02 4.400557205219e-02 0.000000000000e+00
  2.986453085073e-02 3.144889098759e-02 0.000000000000e+00
  3.334804422890e-02 1.650225634067e-02 0.000000000000e+00
  3.244941479679e-02 8.168283954357e-04 0.000000000000e+00
  2.799698528072e-02 -1.269820919951e-02 0.000000000000e+00
  2.150392139739e-02 -2.094442283234e-02 0.000000000000e+00
  1.481042779107e-02 -2.203975729908e-02 0.000000000000e+00
  9.557736180918e-03 -1.632610913464e-02 0.000000000000e+00
  6.678820394819e-03 -6.340669682019e-03 0.000000000000e+00
  6.133091890451e-03 4.332852160499e-03 0.000000000000e+00
  7.036265853251e-03 1.274715123740e-02 0.000000000000e+00
  8.159906120696e-03 1.789019705688e-02 0.000000000000e+00
  8.585163809722e-03 2.089797178004e-02 0.000000000000e+00
  8.200385821442e-03 2.408385872189e-02 0.000000000000e+00
  7.794782851435e-03 2.931549508663e-02 0.000000000000e+00
  8.694711853401e-03 3.660249371359e-02 0.000000000000e+00
  1.211397677981e-02 4.365907576459e-02 0.000000000000e+00
  1.852543924215e-02 4.672492602421e-02 0.000000000000e+00
  2.733914760777e-02 4.227587550344e-02 0.000000000000e+00
  3.701181254016e-02 2.875860441388e-02 0.000000000000e+00
  4.550745128212e-02 7.442800382328e-03 0.000000000000e+00
  5.088888505547e-02 -1.803568482080e-02 0.000000000000e+00
  5.180520751773e-02 -4.314761136779e-02 0.000000000000e+00
  4.773385971070e-02 -6.416705819425e-02 0.000000000000e+00
  3.896489781256e-02 -7.931091822590e-02 0.000000000000e+00
  2.640651421203e-02 -8.896121100031e-02 0.000000000000e+00
  1.131599132095e-02 -9.508029847311e-02 0.000000000000e+00
  -4.962079932691e-03 -1.001648780081e-01 0.000000000000e+00
  -2.120239098086e-02 -1.060913328005e-01 0.000000000000e+00
  -3.642732746989e-02 -1.131686097672e-01 0.000000000000e+00
  -4.995207282650e-02 -1.197340212962e-01 0.000000000000e+00
  -6.136013363233e-02 -1.225932657816e-01 0.000000000000e+00
  -7.044093128755e-02 -1.183490273856e-01 0.000000000000e+00
  -7.712709156335e-02 -1.051938608434e-01 0.000000000000e+00
  -8.145653754841e-02 -8.432890473240e-02 0.000000000000e+00
  -8.356028124809e-02 -6.015333666393e-02 0.000000000000e+00
  -8.365669312660e-02 -3.888604142311e-02 0.000000000000e+00
  -8.202955932350e-02 -2.610269761954e-02 0.000000000000e+00
  -7.898115761093e-02 -2.431537175234e-02 0.000000000000e+00
  -7.477244687019e-02 -3.176688598359e-02 0.000000000000e+00
  -6.957623727563e-02 -4.300460369981e-02 0.000000000000e+00
  -6.346721342202e-02 -5.090584603974e-02 0.000000000000e+00
  -5.645658923704e-02 -4.918644225274e-02 0.000000000000e+00
  -4.855913575792e-02 -3.436707290342e-02 0.000000000000e+00
  -3.986762313937e-02 -6.624491224094e-03 0.000000000000e+00
  -3.060947241434e-02 3.045544000626e-02 0.000000000000e+00
  -2.116985243963e-02 7.084374562089e-02 0.000000000000e+00
  -1.207799165354e-02 1.073525091496e-01 0.000000000000e+00
  -3.963529343660e-03 1.330008320993e-01 0.000000000000e+00
  2.505749211180e-03 1.423430012889e-01 0.000000000000e+00
  6.695558981515e-03 1.326065854656e-01 0.000000000000e+00
  8.083783567917e-03 1.043955646086e-01 0.000000000000e+00
  6.348756695800e-03 6.171903838757e-02 0.000000000000e+00
  1.463803716829e-03 1.126712893866e-02 0.000000000000e+00
  -6.224441339043e-03 -3.891564166390e-02 0.000000000000e+00
  -1.597650896651e-02 -8.104004831390e-02 0.000000000000e+00
  -2.674073134359e-02 -1.090826153896e-01 0.000000000000e+00
  -3.733918225057e-02 -1.198301754661e-01 0.000000000000e+00
  -4.670553144571e-02 -1.131810692056e-01 0.000000000000e+00
  -5.407851523739e-02 -9.163516764835e-02 0.000000000000e+00
  -5.906492145975e-02 -5.922782458531e-02 0.000000000000e+00
  -6.155420072390e-02 -2.043528968181e-02 0.000000000000e+00
  0.000000000000e+00 0.000000000000e+00 0.000000000000e+00
  0.000000000000e+00 0.000000000000e+00 0.000000000000e+00
  -9.802752776051e-02 1.976338680329e-02 0.000000000000e+00
  -9.519838471899e-02 5.742594502653e-02 0.000000000000e+00
  -8.932360098960e-02 8.932360098960e-02 0.000000000000e+00
  -8.020870910988e-02 1.113089648904e-01 0.000000000000e+00
  -6.800626187059e-02 1.195186713778e-01 0.000000000000e+00
  -5.342482218699e-02 1.113965829030e-01 0.000000000000e+00
  -3.769839076383e-02 8.674905673712e-02 0.000000000000e+00
  -2.233870162509e-02 4.833636609672e-02 0.000000000000e+00
  -8.805604170898e-03 1.722430621945e-03 0.000000000000e+00
  1.753765966748e-03 -4.562114865851e-02 0.000000000000e+00
  8.617716285552e-03 -8.575728845425e-02 0.000000000000e+00
  1.146976436898e-02 -1.119387777085e-01 0.000000000000e+00
  1.031571317228e-02 -1.200612404663e-01 0.000000000000e+00
  5.404457513367e-03 -1.095152530289e-01 0.000000000000e+00
  -2.820450570612e-03 -8.321139521778e-02 0.000000000000e+00
  -1.374959013713e-02 -4.682757194559e-02 0.000000000000e+00
  -2.664311161361e-02 -7.548887201456e-03 0.000000000000e+00
  -4.069142950511e-02 2.738565628387e-02 0.000000000000e+00
  -5.510042364692e-02 5.210881694013e-02 0.000000000000e+00
  -6.918085926103e-02 6.337099926698e-02 0.000000000000e+00
  -8.241089464855e-02 6.138809617776e-02 0.000000000000e+00
  -9.444509390637e-02 4.994831596620e-02 0.000000000000e+00
  -1.050642907100e-01 3.546596928401e-02 0.000000000000e+00
  -1.140886414160e-01 2.500641181715e-02 0.000000000000e+00
  -1.212943561731e-01 2.384875635972e-02 0.000000000000e+00
  -1.263701710536e-01 3.356304326681e-02 0.000000000000e+00
  -1.289252630047e-01 5.150922142651e-02 0.000000000000e+00
  -1.285333660634e-01 7.204964977593e-02 0.000000000000e+00
  -1.247872117088e-01 8.892188809399e-02 0.000000000000e+00
  -1.173488096362e-01 9.765120800278e-02 0.000000000000e+00
  -1.060028091323e-01 9.693411376960e-02 0.000000000000e+00
  -9.073217395663e-02 8.853464070042e-02 0.000000000000e+00
  -7.182452128040e-02 7.600256719134e-02 0.000000000000e+00
  -4.998805177192e-02 6.299824712732e-02 0.000000000000e+00
  -2.642769942862e-02 5.199134851717e-02 0.000000000000e+00
  -2.825512862315e-03 4.372502632133e-02 0.000000000000e+00
  1.881007986091e-02 3.741774145343e-02 0.000000000000e+00
  3.642567106033e-02 3.144793553861e-02 0.000000000000e+00
  4.829921611231e-02 2.423878166053e-02 0.000000000000e+00
  5.344444154415e-02 1.508362697844e-02 0.000000000000e+00
  5.194369158723e-02 4.634837316705e-03 0.000000000000e+00
  4.508148022774e-02 -5.201577017275e-03 0.000000000000e+00
  3.515918317777e-02 -1.202569379070e-02 0.000000000000e+00
  2.495296031579e-02 -1.405876952097e-02 0.000000000000e+00
  1.693049687854e-02 -1.103194146331e-02 0.000000000000e+00
  1.250027132586e-02 -4.325695581845e-03 0.000000000000e+00
  1.162457649680e-02 3.739301828406e-03 0.000000000000e+00
  1.301367908642e-02 1.104842541865e-02 0.000000000000e+00
  1.486070365985e-02 1.661825836635e-02 0.000000000000e+00
  1.580164802607e-02 2.080370864365e-02 0.000000000000e+00
  1.564815452464e-02 2.471639344879e-02 0.000000000000e+00
  1.553113207672e-02 2.920558573987e-02 0.000000000000e+00
  1.737448260200e-02 3.396912336086e-02 0.000000000000e+00
  2.294497397121e-02 3.730268953361e-02 0.000000000000e+00
  3.292487126031e-02 3.668995212959e-02 0.000000000000e+00
  4.642701624239e-02 2.999499562610e-02 0.000000000000e+00
  6.114271513616e-02 1.665112002722e-02 0.000000000000e+00
  7.401386836017e-02 -1.816507616263e-03 0.000000000000e+00
  8.211112953721e-02 -2.225507214915e-02 0.000000000000e+00
  8.337101067754e-02 -4.110442796119e-02 0.000000000000e+00
  7.697578677819e-02 -5.574367015078e-02 0.000000000000e+00
  6.334774421314e-02 -6.533730200170e-02 0.000000000000e+00
  4.386707193690e-02 -7.089577148965e-02 0.000000000000e+00
  2.046561951134e-02 -7.465376276526e-02 0.000000000000e+00
  -4.778653967148e-03 -7.906906904844e-02 0.000000000000e+00
  -2.996874320540e-02 -8.575674151432e-02 0.000000000000e+00
  -5.359615841668e-02 -9.465084937743e-02 0.000000000000e+00
  -7.461646936253e-02 -1.037067253974e-01 0.000000000000e+00
  -9.241138148477e-02 -1.094175887599e-01 0.000000000000e+00
  -1.066857864662e-01 -1.081695017746e-01 0.000000000000e+00
  -1.173598840855e-01 -9.801312856112e-02 0.000000000000e+00
  -1.244992168103e-01 -8.004085830582e-02 0.000000000000e+00
  -1.282887880885e-01 -5.854806811307e-02 0.000000000000e+00
  -1.290250529221e-01 -3.965863326196e-02 0.000000000000e+00
  -1.270913541115e-01 -2.889093839452e-02 0.000000000000e+00
  -1.229007692591e-01 -2.876611754231e-02 0.000000000000e+00
  -1.168202964252e-01 -3.760532376826e-02 0.000000000000e+00
  -1.091106377414e-01 -5.007203419350e-02 0.000000000000e+00
  -9.991334783122e-02 -5.914472930988e-02 0.000000000000e+00
  -8.929464161923e-02 -5.857688937957e-02 0.000000000000e+00
  -7.732832325270e-02 -4.484039762225e-02 0.000000000000e+00
  -6.418547160375e-02 -1.798553077276e-02 0.000000000000e+00
  -5.020155166129e-02 1.857440888745e-02 0.000000000000e+00
  -3.590615275457e-02 5.898975785826e-02 0.000000000000e+00
  -2.201554664049e-02 9.622403001208e-02 0.000000000000e+00
  -9.396257847570e-03 1.233955601341e-01 0.000000000000e+00
  9.928609570102e-04 1.350898758947e-01 0.000000000000e+00
  8.179962022436e-03 1.284828000240e-01 0.000000000000e+00
  1.128966683585e-02 1.040214206504e-01 0.000000000000e+00
  9.691746863045e-03 6.542612919071e-02 0.000000000000e+00
  3.179605541818e-03 1.895713243572e-02 0.000000000000e+00
  -7.867341109631e-03 -2.787045345363e-02 0.000000000000e+00
  -2.241613040626e-02 -6.778437960008e-02 0.000000000000e+00
  -3.888144307199e-02 -9.510874906057e-02 0.000000000000e+00
  -5.540793273635e-02 -1.066791012237e-01 0.000000000000e+00
  -7.025032074116e-02 -1.021234062480e-01 0.000000000000e+00
  -8.209778877203e-02 -8.347237878340e-02 0.000000000000e+00
  -9.020302793243e-02 -5.429896806750e-02 0.000000000000e+00
  -9.428137540429e-02 -1.879651946361e-02 0.000000000000e+00
  0.000000000000e+00 0.000000000000e+00 0.000000000000e+00
  0.000000000000e+00 0.000000000000e+00 0.000000000000e+00
  -1.240481193162e-01 1.803937053979e-02 0.000000000000e+00
  -1.198511595675e-01 5.212385849975e-02 0.000000000000e+00
  -1.113089648904e-01 8.020870910988e-02 0.000000000000e+00
  -9.840515729868e-02 9.840515729868e-02 0.000000000000e+00
  -8.162671982521e-02 1.034415942568e-01 0.000000000000e+00
  -6.217647635464e-02 9.344197686988e-02 0.000000000000e+00
  -4.187732462739e-02 6.867807961982e-02 0.000000000000e+00
  -2.280476123862e-02 3.197509068652e-02 0.000000000000e+00
  -6.828806583662e-03 -1.142534607700e-02 0.000000000000e+00
  4.732308092525e-03 -5.459385677339e-02 0.000000000000e+00
  1.123620715354e-02 -9.015242971919e-02 0.000000000000e+00
  1.263478823279e-02 -1.117942656062e-01 0.000000000000e+00
  9.286271229217e-03 -1.157031843683e-01 0.000000000000e+00
  1.768082405402e-03 -1.014438646442e-01 0.000000000000e+00
  -9.246906743998e-03 -7.204288636912e-02 0.000000000000e+00
  -2.304330471087e-02 -3.327054326086e-02 0.000000000000e+00
  -3.887347482352e-02 7.617775702943e-03 0.000000000000e+00
  -5.596217100655e-02 4.335600745401e-02 0.000000000000e+00
  -7.353060616522e-02 6.811589507048e-02 0.000000000000e+00
  -9.084233917557e-02 7.875608976109e-02 0.000000000000e+00
  -1.072516713788e-01 7.564237327441e-02 0.000000000000e+00