# vtk DataFile Version 3.0
Karman Output
ASCII
DATASET RECTILINEAR_GRID
DIMENSIONS 101 101 1
X_COORDINATES 101 float
   0.000000000000e+00   9.900990099010e-03   1.980198019802e-02   2.970297029703e-02   3.960396039604e-02   4.950495049505e-02   5.940594059406e-02   6.930693069307e-02   7.920792079208e-02   8.910891089109e-02   9.900990099010e-02   1.089108910891e-01   1.188118811881e-01   1.287128712871e-01   1.386138613861e-01   1.485148514851e-01   1.584158415842e-01   1.683168316832e-01   1.782178217822e-01   1.881188118812e-01   1.980198019802e-01   2.079207920792e-01   2.178217821782e-01   2.277227722772e-01   2.376237623762e-01   2.475247524752e-01   2.574257425743e-01   2.673267326733e-01   2.772277227723e-01   2.871287128713e-01   2.970297029703e-01   3.069306930693e-01   3.168316831683e-01   3.267326732673e-01   3.366336633663e-01   3.465346534653e-01   3.564356435644e-01   3.663366336634e-01   3.762376237624e-01   3.861386138614e-01   3.960396039604e-01   4.059405940594e-01   4.158415841584e-01   4.257425742574e-01   4.356435643564e-01   4.455445544554e-01   4.554455445545e-01   4.653465346535e-01   4.752475247525e-01   4.851485148515e-01   4.950495049505e-01   5.049504950495e-01   5.148514851485e-01   5.247524752475e-01   5.346534653465e-01   5.445544554455e-01   5.544554455446e-01   5.643564356436e-01   5.742574257426e-01   5.841584158416e-01   5.940594059406e-01   6.039603960396e-01   6.138613861386e-01   6.237623762376e-01   6.336633663366e-01   6.435643564356e-01   6.534653465347e-01   6.633663366337e-01   6.732673267327e-01   6.831683168317e-01   6.930693069307e-01   7.029702970297e-01   7.128712871287e-01   7.227722772277e-01   7.326732673267e-01   7.425742574257e-01   7.524752475248e-01   7.623762376238e-01   7.722772277228e-01   7.821782178218e-01   7.920792079208e-01   8.019801980198e-01   8.118811881188e-01   8.217821782178e-01   8.316831683168e-01   8.415841584158e-01   8.514851485149e-01   8.613861386139e-01   8.712871287129e-01   8.811881188119e-01   8.910891089109e-01   9.009900990099e-01   9.108910891089e-01   9.207920792079e-01   9.306930693069e-01   9.405940594059e-01   9.504950495050e-01   9.603960396040e-01   9.702970297030e-01   9.801980198020e-01   9.900990099010e-01
Y_COORDINATES 101 float
   0.000000000000e+00   9.900990099010e-03   1.980198019802e-02   2.970297029703e-02   3.960396039604e-02   4.950495049505e-02   5.940594059406e-02   6.930693069307e-02   7.920792079208e-02   8.910891089109e-02   9.900990099010e-02   1.089108910891e-01   1.188118811881e-01   1.287128712871e-01   1.386138613861e-01   1.485148514851e-01   1.584158415842e-01   1.683168316832e-01   1.782178217822e-01   1.881188118812e-01   1.980198019802e-01   2.079207920792e-01   2.178217821782e-01   2.277227722772e-01   2.376237623762e-01   2.475247524752e-01   2.574257425743e-01   2.673267326733e-01   2.772277227723e-01   2.871287128713e-01   2.970297029703e-01   3.069306930693e-01   3.168316831683e-01   3.267326732673e-01   3.366336633663e-01   3.465346534653e-01   3.564356435644e-01   3.663366336634e-01   3.762376237624e-01   3.861386138614e-01   3.960396039604e-01   4.059405940594e-01   4.158415841584e-01   4.257425742574e-01   4.356435643564e-01   4.455445544554e-01   4.554455445545e-01   4.653465346535e-01   4.752475247525e-01   4.851485148515e-01   4.950495049505e-01   5.049504950495e-01   5.148514851485e-01   5.247524752475e-01   5.346534653465e-01   5.445544554455e-01   5.544554455446e-01   5.643564356436e-01   5.742574257426e-01   5.841584158416e-01   5.940594059406e-01   6.039603960396e-01   6.138613861386e-01   6.237623762376e-01   6.336633663366e-01   6.435643564356e-01   6.534653465347e-01   6.633663366337e-01   6.732673267327e-01   6.831683168317e-01   6.930693069307e-01   7.029702970297e-01   7.128712871287e-01   7.227722772277e-01   7.326732673267e-01   7.425742574257e-01   7.524752475248e-01   7.623762376238e-01   7.722772277228e-01   7.821782178218e-01   7.920792079208e-01   8.019801980198e-01   8.118811881188e-01   8.217821782178e-01   8.316831683168e-01   8.415841584158e-01   8.514851485149e-01   8.613861386139e-01   8.712871287129e-01   8.811881188119e-01   8.910891089109e-01   9.009900990099e-01   9.108910891089e-01   9.207920792079e-01   9.306930693069e-01   9.405940594059e-01   9.504950495050e-01   9.603960396040e-01   9.702970297030e-01   9.801980198020e-01   9.900990099010e-01
Z_COORDINATES 1 float
  0.000000000000e+00
POINT_DATA 10201
VECTORS E_field float
  0.000000000000e+00 0.000000000000e+00 0.000000000000e+00
  0.000000000000e+00 0.000000000000e+00 0.000000000000e+00
  0.000000000000e+00 0.000000000000e+00 0.000000000000e+00
  0.000000000000e+00 0.000000000000e+00 0.000000000000e+00
  0.000000000000e+00 0.000000000000e+00 0.000000000000e+00
  0.000000000000e+00 0.000000000000e+00 0.000000000000e+00
  0.000000000000e+00 0.000000000000e+00 0.000000000000e+00
  0.000000000000e+00 0.000000000000e+00 0.000000000000e+00
  0.000000000000e+00 0.000000000000e+00 0.000000000000e+00
  0.000000000000e+00 0.000000000000e+00 0.000000000000e+00
  0.000000000000e+00 0.000000000000e+00 0.000000000000e+00
  0.000000000000e+00 0.000000000000e+00 0.000000000000e+00
  0.000000000000e+00 0.000000000000e+00 0.000000000000e+00
  0.000000000000e+00 0.000000000000e+00 0.000000000000e+00
  0.000000000000e+00 0.000000000000e+00 0.000000000000e+00
  0.000000000000e+00 0.000000000000e+00 0.000000000000e+00
  0.000000000000e+00 0.000000000000e+00 0.000000000000e+00
  0.000000000000e+00 0.000000000000e+00 0.000000000000e+00
  0.000000000000e+00 0.000000000000e+00 0.000000000000e+00
  0.000000000000e+00 0.000000000000e+00 0.000000000000e+00
  0.000000000000e+00 0.000000000000e+00 0.000000000000e+00
  0.000000000000e+00 0.000000000000e+00 0.000000000000e+00
  0.000000000000e+00 0.000000000000e+00 0.000000000000e+00
  0.000000000000e+00 0.000000000000e+00 0.000000000000e+00
  0.000000000000e+00 0.000000000000e+00 0.000000000000e+00
  0.000000000000e+00 0.000000000000e+00 0.000000000000e+00
  0.000000000000e+00 0.000000000000e+00 0.000000000000e+00
  0.000000000000e+00 0.000000000000e+00 0.000000000000e+00
  0.000000000000e+00 0.000000000000e+00 0.000000000000e+00
  0.000000000000e+00 0.000000000000e+00 0.000000000000e+00
  0.000000000000e+00 0.000000000000e+00 0.000000000000e+00
  0.000000000000e+00 0.000000000000e+00 0.000000000000e+00
  0.000000000000e+00 0.000000000000e+00 0.000000000000e+00
  0.000000000000e+00 0.000000000000e+00 0.000000000000e+00
  0.000000000000e+00 0.000000000000e+00 0.000000000000e+00
  0.000000000000e+00 0.000000000000e+00 0.000000000000e+00
  0.000000000000e+00 0.000000000000e+00 0.000000000000e+00
  0.000000000000e+00 0.000000000000e+00 0.000000000000e+00
  0.000000000000e+00 0.000000000000e+00 0.000000000000e+00
  0.000000000000e+00 0.000000000000e+00 0.000000000000e+00
  0.000000000000e+00 0.000000000000e+00 0.000000000000e+00
  0.000000000000e+00 0.000000000000e+00 0.000000000000e+00
  0.000000000000e+00 0.000000000000e+00 0.000000000000e+00
  0.000000000000e+00 0.000000000000e+00 0.000000000000e+00
  0.000000000000e+00 0.000000000000e+00 0.000000000000e+00
  0.000000000000e+00 0.000000000000e+00 0.000000000000e+00
  0.000000000000e+00 0.000000000000e+00 0.000000000000e+00
  0.000000000000e+00 0.000000000000e+00 0.000000000000e+00
  0.000000000000e+00 0.000000000000e+00 0.000000000000e+00
  0.000000000000e+00 0.000000000000e+00 0.000000000000e+00
  0.000000000000e+00 0.000000000000e+00 0.000000000000e+00
  0.000000000000e+00 0.000000000000e+00 0.000000000000e+00
  0.000000000000e+00 0.000000000000e+00 0.000000000000e+00
  0.000000000000e+00 0.000000000000e+00 0.000000000000e+00
  0.000000000000e+00 0.000000000000e+00 0.000000000000e+00
  0.000000000000e+00 0.000000000000e+00 0.000000000000e+00
  0.000000000000e+00 0.000000000000e+00 0.000000000000e+00
  0.000000000000e+00 0.000000000000e+00 0.000000000000e+00
  0.000000000000e+00 0.000000000000e+00 0.000000000000e+00
  0.000000000000e+00 0.000000000000e+00 0.000000000000e+00
  0.000000000000e+00 0.000000000000e+00 0.000000000000e+00
  0.000000000000e+00 0.000000000000e+00 0.000000000000e+00
  0.000000000000e+00 0.000000000000e+00 0.000000000000e+00
  0.000000000000e+00 0.000000000000e+00 0.000000000000e+00
  0.000000000000e+00 0.000000000000e+00 0.000000000000e+00
  0.000000000000e+00 0.000000000000e+00 0.000000000000e+00
  0.000000000000e+00 0.000000000000e+00 0.000000000000e+00
  0.000000000000e+00 0.000000000000e+00 0.000000000000e+00
  0.000000000000e+00 0.000000000000e+00 0.000000000000e+00
  0.000000000000e+00 0.000000000000e+00 0.000000000000e+00
  0.000000000000e+00 0.000000000000e+00 0.000000000000e+00
  0.000000000000e+00 0.000000000000e+00 0.000000000000e+00
  0.000000000000e+00 0.000000000000e+00 0.000000000000e+00
  0.000000000000e+00 0.000000000000e+00 0.000000000000e+00
  0.000000000000e+00 0.000000000000e+00 0.000000000000e+00
  0.000000000000e+00 0.000000000000e+00 0.000000000000e+00
  0.000000000000e+00 0.000000000000e+00 0.000000000000e+00
  0.000000000000e+00 0.000000000000e+00 0.000000000000e+00
  0.000000000000e+00 0.000000000000e+00 0.000000000000e+00
  0.000000000000e+00 0.000000000000e+00 0.000000000000e+00
  0.000000000000e+00 0.000000000000e+00 0.000000000000e+00
  0.000000000000e+00 0.000000000000e+00 0.000000000000e+00
  0.000000000000e+00 0.000000000000e+00 0.000000000000e+00
  0.000000000000e+00 0.000000000000e+00 0.000000000000e+00
  0.000000000000e+00 0.000000000000e+00 0.000000000000e+00
  0.000000000000e+00 0.000000000000e+00 0.000000000000e+00
  0.000000000000e+00 0.000000000000e+00 0.000000000000e+00
  0.000000000000e+00 0.000000000000e+00 0.000000000000e+00
  0.000000000000e+00 0.000000000000e+00 0.000000000000e+00
  0.000000000000e+00 0.000000000000e+00 0.000000000000e+00
  0.000000000000e+00 0.000000000000e+00 0.000000000000e+00
  0.000000000000e+00 0.000000000000e+00 0.000000000000e+00
  0.000000000000e+00 0.000000000000e+00 0.000000000000e+00
  0.000000000000e+00 0.000000000000e+00 0.000000000000e+00
  0.000000000000e+00 0.000000000000e+00 0.000000000000e+00
  0.000000000000e+00 0.000000000000e+00 0.000000000000e+00
  0.000000000000e+00 0.000000000000e+00 0.000000000000e+00
  0.000000000000e+00 0.000000000000e+00 0.000000000000e+00
  0.000000000000e+00 0.000000000000e+00 0.000000000000e+00
  0.000000000000e+00 0.000000000000e+00 0.000000000000e+00
  0.000000000000e+00 0.000000000000e+00 0.000000000000e+00
  0.000000000000e+00 0.000000000000e+00 0.000000000000e+00
  2.017763452650e-02 -2.017763452650e-02 0.000000000000e+00
  2.073341603157e-02 -6.214452864310e-02 0.000000000000e+00
  2.146855654234e-02 -1.083151622657e-01 0.000000000000e+00
  2.177239903654e-02 -1.595897026799e-01 0.000000000000e+00
  2.102856886805e-02 -2.146530521803e-01 0.000000000000e+00
  1.884192567663e-02 -2.701466706769e-01 0.000000000000e+00
  1.518081697828e-02 -3.214640375378e-01 0.000000000000e+00
  1.038937551120e-02 -3.638989315843e-01 0.000000000000e+00
  5.077399205129e-03 -3.937776128567e-01 0.000000000000e+00
  -6.047567626115e-05 -4.092415267738e-01 0.000000000000e+00
  -4.426484664284e-03 -4.104945068869e-01 0.000000000000e+00
  -7.644136017319e-03 -3.995217001235e-01 0.000000000000e+00
  -9.598486694016e-03 -3.794484118963e-01 0.000000000000e+00
  -1.039986541433e-02 -3.537815271152e-01 0.000000000000e+00
  -1.030165866873e-02 -3.257543691910e-01 0.000000000000e+00
  -9.608530712717e-03 -2.979085009589e-01 0.000000000000e+00
  -8.602838073435e-03 -2.719417826243e-01 0.000000000000e+00
  -7.501894426140e-03 -2.487724195211e-01 0.000000000000e+00
  -6.444934980038e-03 -2.287329026490e-01 0.000000000000e+00
  -5.500560451251e-03 -2.118119939258e-01 0.000000000000e+00
  -4.683652728631e-03 -1.978900327817e-01 0.000000000000e+00
  -3.973287103201e-03 -1.869432989501e-01 0.000000000000e+00
  -3.327418750261e-03 -1.792125121102e-01 0.000000000000e+00
  -2.694094538975e-03 -1.753319595085e-01 0.000000000000e+00
  -2.021551935115e-03 -1.763997908371e-01 0.000000000000e+00
  -1.270352360148e-03 -1.839443597229e-01 0.000000000000e+00
  -4.294483748407e-04 -1.997211804722e-01 0.000000000000e+00
  4.651732696654e-04 -2.252813845356e-01 0.000000000000e+00
  1.315227448319e-03 -2.613065063714e-01 0.000000000000e+00
  1.958299887321e-03 -3.068128377295e-01 0.000000000000e+00
  2.190131486275e-03 -3.584668516116e-01 0.000000000000e+00
  1.815936069550e-03 -4.103568342065e-01 0.000000000000e+00
  7.229778098864e-04 -4.545468640342e-01 0.000000000000e+00
  -1.048932394510e-03 -4.825339066000e-01 0.000000000000e+00
  -3.272205721035e-03 -4.873596808591e-01 0.000000000000e+00
  -5.559563722763e-03 -4.657383448593e-01 0.000000000000e+00
  -7.460224500823e-03 -4.193694505658e-01 0.000000000000e+00
  -8.595681989812e-03 -3.547898459372e-01 0.000000000000e+00
  -8.781150074670e-03 -2.816713192798e-01 0.000000000000e+00
  -8.078766424888e-03 -2.101511695487e-01 0.000000000000e+00
  -6.758433072515e-03 -1.482242550673e-01 0.000000000000e+00
  -5.186852688171e-03 -1.001639451375e-01 0.000000000000e+00
  -3.698758216853e-03 -6.640453936862e-02 0.000000000000e+00
  -2.506769369347e-03 -4.462632086250e-02 0.000000000000e+00
  -1.678504225017e-03 -3.132977189014e-02 0.000000000000e+00
  -1.171659584551e-03 -2.317329965226e-02 0.000000000000e+00
  -8.935931269858e-04 -1.768593756196e-02 0.000000000000e+00
  -7.521218494163e-04 -1.337491456378e-02 0.000000000000e+00
  -6.816285007014e-04 -9.487158654974e-03 0.000000000000e+00
  -6.475913690534e-04 -5.692517958053e-03 0.000000000000e+00
  -6.422451677068e-04 -1.827885386410e-03 0.000000000000e+00
  -6.827627633481e-04 2.297277940286e-03 0.000000000000e+00
  -8.154254903348e-04 7.107421173949e-03 0.000000000000e+00
  -1.119541956616e-03 1.354056098839e-02 0.000000000000e+00
  -1.697874701813e-03 2.336621528718e-02 0.000000000000e+00
  -2.641507585927e-03 3.935906800949e-02 0.000000000000e+00
  -3.970381174924e-03 6.503960816068e-02 0.000000000000e+00
  -5.572231221785e-03 1.037603336145e-01 0.000000000000e+00
  -7.178268569432e-03 1.572211215786e-01 0.000000000000e+00
  -8.407558633521e-03 2.239247183278e-01 0.000000000000e+00
  -8.880149202139e-03 2.983554718097e-01 0.000000000000e+00
  -8.357859934285e-03 3.715248580755e-01 0.000000000000e+00
  -6.848338569804e-03 4.329601136264e-01 0.000000000000e+00
  -4.620394094943e-03 4.735031777617e-01 0.000000000000e+00
  -2.121176916375e-03 4.878503937540e-01 0.000000000000e+00
  1.669902498369e-04 4.758594795105e-01 0.000000000000e+00
  1.867644273629e-03 4.422140933502e-01 0.000000000000e+00
  2.795478969107e-03 3.947386995276e-01 0.000000000000e+00
  2.964918600278e-03 3.421324005473e-01 0.000000000000e+00
  2.536268684501e-03 2.919552311841e-01 0.000000000000e+00
  1.734101509235e-03 2.494150114220e-01 0.000000000000e+00
  7.726467729876e-04 2.170818257283e-01 0.000000000000e+00
  -1.909455011330e-04 1.953164380811e-01 0.000000000000e+00
  -1.071723325230e-03 1.830491932878e-01 0.000000000000e+00
  -1.848652277341e-03 1.785764809384e-01 0.000000000000e+00
  -2.545115582629e-03 1.801707172434e-01 0.000000000000e+00
  -3.208057670867e-03 1.864386006192e-01 0.000000000000e+00
  -3.890606560124e-03 1.964567859482e-01 0.000000000000e+00
  -4.638348126496e-03 2.097512249181e-01 0.000000000000e+00
  -5.476786803395e-03 2.261810147340e-01 0.000000000000e+00
  -6.397349554029e-03 2.457638625062e-01 0.000000000000e+00
  -7.341336860631e-03 2.684592661869e-01 0.000000000000e+00
  -8.184875686617e-03 2.939200473712e-01 0.000000000000e+00
  -8.732066293851e-03 3.212366442381e-01 0.000000000000e+00
  -8.726299205392e-03 3.487263132953e-01 0.000000000000e+00
  -7.888774806319e-03 3.738473350982e-01 0.000000000000e+00
  -5.986632785836e-03 3.933268612369e-01 0.000000000000e+00
  -2.920854439810e-03 4.035616688090e-01 0.000000000000e+00
  1.190313100911e-03 4.012771706589e-01 0.000000000000e+00
  5.966544284257e-03 3.843265980367e-01 0.000000000000e+00
  1.079126251203e-02 3.524172664818e-01 0.000000000000e+00
  1.492212510242e-02 3.075124828134e-01 0.000000000000e+00
  1.766971307586e-02 2.537106363418e-01 0.000000000000e+00
  1.859631581946e-02 1.965454689923e-01 0.000000000000e+00
  1.766863899925e-02 1.418381815961e-01 0.000000000000e+00
  1.530463765234e-02 9.439144642594e-02 0.000000000000e+00
  1.228601873210e-02 5.688365074414e-02 0.000000000000e+00
  9.553307297219e-03 2.927318139359e-02 0.000000000000e+00
  7.942199147451e-03 8.879216068888e-03 0.000000000000e+00
  0.000000000000e+00 0.000000000000e+00 0.000000000000e+00
  0.000000000000e+00 0.000000000000e+00 0.000000000000e+00
  6.214452864310e-02 -2.073341603157e-02 0.000000000000e+00
  6.342951795939e-02 -6.342951795939e-02 0.000000000000e+00
  6.499138094064e-02 -1.093271764414e-01 0.000000000000e+00
  6.519441877747e-02 -1.590845688352e-01 0.000000000000e+00
  6.238903763035e-02 -2.116089747094e-01 0.000000000000e+00
  5.552535060396e-02 -2.641404179299e-01 0.000000000000e+00
  4.454343615521e-02 -3.128272671376e-01 0.000000000000e+00
  3.041487079482e-02 -3.536156951570e-01 0.000000000000e+00
  1.484999400284e-02 -3.831839961860e-01 0.000000000000e+00
  -1.943232421691e-04 -3.996529513181e-01 0.000000000000e+00
  -1.301841807363e-02 -4.028929785230e-01 0.000000000000e+00
  -2.253358777381e-02 -3.943904074341e-01 0.000000000000e+00
  -2.838649898197e-02 -3.767724427008e-01 0.000000000000e+00
  -3.086880983561e-02 -3.531738067367e-01 0.000000000000e+00
  -3.069255182948e-02 -3.266365543212e-01 0.000000000000e+00
  -2.873156273139e-02 -2.996804328828e-01 0.000000000000e+00
  -2.580857525931e-02 -2.740985308117e-01 0.000000000000e+00
  -2.256691103341e-02 -2.509582792068e-01 0.000000000000e+00
  -1.942672550832e-02 -2.307441879345e-01 0.000000000000e+00
  -1.660165211726e-02 -2.135701565602e-01 0.000000000000e+00
  -1.414509566084e-02 -1.994053343263e-01 0.000000000000e+00
  -1.200154527797e-02 -1.882819134137e-01 0.000000000000e+00
  -1.004999126391e-02 -1.804713200136e-01 0.000000000000e+00
  -8.137995155126e-03 -1.766184719252e-01 0.000000000000e+00
  -6.112761586456e-03 -1.778110545929e-01 0.000000000000e+00
  -3.858072259042e-03 -1.855389848694e-01 0.000000000000e+00
  -1.342406385839e-03 -2.014831251842e-01 0.000000000000e+00
  1.325942963417e-03 -2.270824108174e-01 0.000000000000e+00
  3.854379864184e-03 -2.628839711690e-01 0.000000000000e+00
  5.761628175397e-03 -3.077856936821e-01 0.000000000000e+00
  6.444502533159e-03 -3.584087016157e-01 0.000000000000e+00
  5.329688717688e-03 -4.089259749701e-01 0.000000000000e+00
  2.087143310966e-03 -4.516422196039e-01 0.000000000000e+00
  -3.163566433493e-03 -4.784159310806e-01 0.000000000000e+00
  -9.750903338378e-03 -4.826670461454e-01 0.000000000000e+00
  -1.653440878114e-02 -4.613601161256e-01 0.000000000000e+00
  -2.218652080763e-02 -4.161949064899e-01 0.000000000000e+00
  -2.558980295036e-02 -3.534256503730e-01 0.000000000000e+00
  -2.619263639539e-02 -2.822472133010e-01 0.000000000000e+00
  -2.416662739496e-02 -2.123036681583e-01 0.000000000000e+00
  -2.029518760858e-02 -1.512635295689e-01 0.000000000000e+00
  -1.565203596408e-02 -1.033394026274e-01 0.000000000000e+00
  -1.122548991835e-02 -6.914372234786e-02 0.000000000000e+00
  -7.652410845404e-03 -4.665220574546e-02 0.000000000000e+00
  -5.146348467363e-03 -3.263821446257e-02 0.000000000000e+00
  -3.595184144595e-03 -2.392286597067e-02 0.000000000000e+00
  -2.732844827531e-03 -1.807677694524e-02 0.000000000000e+00
  -2.288596272437e-03 -1.356979494565e-02 0.000000000000e+00
  -2.066384358990e-03 -9.584983479501e-03 0.000000000000e+00
  -1.961502819545e-03 -5.733611766325e-03 0.000000000000e+00
  -1.950296312337e-03 -1.803344270030e-03 0.000000000000e+00
  -2.085523698717e-03 2.448481799088e-03 0.000000000000e+00
  -2.507323647386e-03 7.510679961232e-03 0.000000000000e+00
  -3.451698224590e-03 1.438579319555e-02 0.000000000000e+00
  -5.218703453441e-03 2.486632099073e-02 0.000000000000e+00
  -8.066923933757e-03 4.165081559893e-02 0.000000000000e+00
  -1.203985453643e-02 6.804966468960e-02 0.000000000000e+00
  -1.679133560555e-02 1.071036081318e-01 0.000000000000e+00
  -2.152050986610e-02 1.602130586073e-01 0.000000000000e+00
  -2.510660174896e-02 2.257481631938e-01 0.000000000000e+00
  -2.644111643418e-02 2.983391321559e-01 0.000000000000e+00
  -2.483710273003e-02 3.694148947257e-01 0.000000000000e+00
  -2.032921811015e-02 4.290526709692e-01 0.000000000000e+00
  -1.371514778832e-02 4.685686056068e-01 0.000000000000e+00
  -6.312099046899e-03 4.828826999788e-01 0.000000000000e+00
  4.615913733750e-04 4.717653156929e-01 0.000000000000e+00
  5.498413196903e-03 4.395707813167e-01 0.000000000000e+00
  8.251436710956e-03 3.937011533494e-01 0.000000000000e+00
  8.760375910620e-03 3.424915678936e-01 0.000000000000e+00
  7.494934708468e-03 2.932901549552e-01 0.000000000000e+00
  5.116012020206e-03 2.512611775141e-01 0.000000000000e+00
  2.256313255581e-03 2.190568131369e-01 0.000000000000e+00
  -6.181011050879e-04 1.971794573072e-01 0.000000000000e+00
  -3.253626172692e-03 1.847024769534e-01 0.000000000000e+00
  -5.585758524520e-03 1.800322585767e-01 0.000000000000e+00
  -7.682009236597e-03 1.815076536224e-01 0.000000000000e+00
  -9.680060078624e-03 1.877626571704e-01 0.000000000000e+00
  -1.173559273980e-02 1.978708109474e-01 0.000000000000e+00
  -1.398063442036e-02 2.113299831659e-01 0.000000000000e+00
  -1.648559974785e-02 2.279456604906e-01 0.000000000000e+00
  -1.921780347569e-02 2.476519832281e-01 0.000000000000e+00
  -2.199530553044e-02 2.702926348264e-01 0.000000000000e+00
  -2.444551567813e-02 2.953804277054e-01 0.000000000000e+00
  -2.598953708265e-02 3.218674759156e-01 0.000000000000e+00
  -2.588033956203e-02 3.479805170087e-01 0.000000000000e+00
  -2.331889263569e-02 3.711941600594e-01 0.000000000000e+00
  -1.765236936428e-02 3.884113709838e-01 0.000000000000e+00
  -8.623503471306e-03 3.963825148231e-01 0.000000000000e+00
  3.399351474304e-03 3.923223021584e-01 0.000000000000e+00
  1.730700296900e-02 3.745975838591e-01 0.000000000000e+00
  3.133527540811e-02 3.432932899925e-01 0.000000000000e+00
  4.338532597618e-02 3.004555461442e-01 0.000000000000e+00
  5.152681498357e-02 2.498784960302e-01 0.000000000000e+00
  5.454719112826e-02 1.964306304156e-01 0.000000000000e+00
  5.236495607057e-02 1.450629320507e-01 0.000000000000e+00
  4.614665054392e-02 9.974900284496e-02 0.000000000000e+00
  3.805548759545e-02 6.263587619382e-02 0.000000000000e+00
  3.068284911472e-02 3.362630585952e-02 0.000000000000e+00
  2.632504054657e-02 1.049500832088e-02 0.000000000000e+00
  0.000000000000e+00 0.000000000000e+00 0.000000000000e+00
  0.000000000000e+00 0.000000000000e+00 0.000000000000e+00
  1.083151622657e-01 -2.146855654234e-02 0.000000000000e+00
  1.093271764414e-01 -6.499138094064e-02 0.000000000000e+00
  1.100283771867e-01 -1.100283771867e-01 0.000000000000e+00
  1.082726111486e-01 -1.568306398886e-01 0.000000000000e+00
  1.019021761828e-01 -2.046870875431e-01 0.000000000000e+00
  8.957160801526e-02 -2.518680499023e-01 0.000000000000e+00
  7.128824884463e-02 -2.958343615459e-01 0.000000000000e+00
  4.849245644735e-02 -3.336842429911e-01 0.000000000000e+00
  2.367928290913e-02 -3.627373980217e-01 0.000000000000e+00
  -2.726968539634e-04 -3.811032524743e-01 0.000000000000e+00
  -2.081582000377e-02 -3.880754593856e-01 0.000000000000e+00
  -3.626204163666e-02 -3.842465352385e-01 0.000000000000e+00
  -4.599863413738e-02 -3.713268111876e-01 0.000000000000e+00
  -5.039197704483e-02 -3.517437844888e-01 0.000000000000e+00
  -5.048003607868e-02 -3.281547755413e-01 0.000000000000e+00
  -4.759352345136e-02 -3.030097133881e-01 0.000000000000e+00
  -4.302635581924e-02 -2.782594054107e-01 0.000000000000e+00
  -3.782253029152e-02 -2.552428943615e-01 0.000000000000e+00
  -3.268934087911e-02 -2.347329477173e-01 0.000000000000e+00
  -2.800748147640e-02 -2.170883295711e-01 0.000000000000e+00
  -2.389405180029e-02 -2.024571474479e-01 0.000000000000e+00
  -2.028016381214e-02 -1.909875386631e-01 0.000000000000e+00
  -1.698103567215e-02 -1.830163769182e-01 0.000000000000e+00
  -1.375402006429e-02 -1.792124267372e-01 0.000000000000e+00
  -1.035280820895e-02 -1.806435452049e-01 0.000000000000e+00
  -6.590677675374e-03 -1.887233141184e-01 0.000000000000e+00
  -2.420416396469e-03 -2.049847230873e-01 0.000000000000e+00
  1.976457176447e-03 -2.306460358364e-01 0.000000000000e+00
  6.119766901006e-03 -2.659920927752e-01 0.000000000000e+00
  9.226972457992e-03 -3.096920259439e-01 0.000000000000e+00
  1.032413992842e-02 -3.582824111814e-01 0.000000000000e+00
  8.491807264130e-03 -4.061051189231e-01 0.000000000000e+00
  3.206560732244e-03 -4.459352837093e-01 0.000000000000e+00
  -5.331780305395e-03 -4.703338161874e-01 0.000000000000e+00
  -1.604039541288e-02 -4.734532090156e-01 0.000000000000e+00
  -2.708799019352e-02 -4.527428530129e-01 0.000000000000e+00
  -3.634273449998e-02 -4.099053132372e-01 0.000000000000e+00
  -4.200159378160e-02 -3.506531021487e-01 0.000000000000e+00
  -4.315503463911e-02 -2.832634871411e-01 0.000000000000e+00
  -4.004189616009e-02 -2.164265416769e-01 0.000000000000e+00
  -3.388288265072e-02 -1.571711091760e-01 0.000000000000e+00
  -2.638136714965e-02 -1.095764899379e-01 0.000000000000e+00
  -1.913168926111e-02 -7.458285868103e-02 0.000000000000e+00
  -1.319046050168e-02 -5.072737689321e-02 0.000000000000e+00
  -8.947160153523e-03 -3.531240563899e-02 0.000000000000e+00
  -6.262683663716e-03 -2.548431517410e-02 0.000000000000e+00
  -4.732681628446e-03 -1.890766865950e-02 0.000000000000e+00
  -3.925887271407e-03 -1.398994574196e-02 0.000000000000e+00
  -3.519167844671e-03 -9.793763691776e-03 0.000000000000e+00
  -3.334980300126e-03 -5.813900409704e-03 0.000000000000e+00
  -3.332927035542e-03 -1.736315297641e-03 0.000000000000e+00
  -3.604643297116e-03 2.788396436866e-03 0.000000000000e+00
  -4.387047213179e-03 8.374969015949e-03 0.000000000000e+00
  -6.066009080198e-03 1.614484029696e-02 0.000000000000e+00
  -9.113755377195e-03 2.792202504100e-02 0.000000000000e+00
  -1.391320292178e-02 4.624277914929e-02 0.000000000000e+00
  -2.048451223606e-02 7.400194061835e-02 0.000000000000e+00
  -2.822197470862e-02 1.136402753254e-01 0.000000000000e+00
  -3.581059140819e-02 1.659941819972e-01 0.000000000000e+00
  -4.145516788080e-02 2.291977078401e-01 0.000000000000e+00
  -4.341017073136e-02 2.981791047890e-01 0.000000000000e+00
  -4.061942104216e-02 3.651801585037e-01 0.000000000000e+00
  -3.317747901916e-02 4.213375804063e-01 0.000000000000e+00
  -2.238439510170e-02 4.588765418322e-01 0.000000000000e+00
  -1.035624034003e-02 4.731435601856e-01 0.000000000000e+00
  6.361788007850e-04 4.637383458843e-01 0.000000000000e+00
  8.817959743500e-03 4.343791483347e-01 0.000000000000e+00
  1.330660823123e-02 3.916511143157e-01 0.000000000000e+00
  1.415664258206e-02 3.431826333691e-01 0.000000000000e+00
  1.211436252096e-02 2.959068107390e-01 0.000000000000e+00
  8.239463821528e-03 2.548983431161e-01 0.000000000000e+00
  3.553820022465e-03 2.229649900977e-01 0.000000000000e+00
  -1.183500243618e-03 2.008830149728e-01 0.000000000000e+00
  -5.554001322953e-03 1.880049454346e-01 0.000000000000e+00
  -9.445626903442e-03 1.829535480278e-01 0.000000000000e+00
  -1.296219727830e-02 1.841991852582e-01 0.000000000000e+00
  -1.632272222092e-02 1.904297013192e-01 0.000000000000e+00
  -1.977439734801e-02 2.007109745869e-01 0.000000000000e+00
  -2.352175450047e-02 2.144822183594e-01 0.000000000000e+00
  -2.766247126722e-02 2.314391073913e-01 0.000000000000e+00
  -3.212003568409e-02 2.513483044721e-01 0.000000000000e+00
  -3.657335531046e-02 2.738271352635e-01 0.000000000000e+00
  -4.039968388531e-02 2.981224659909e-01 0.000000000000e+00
  -4.266372877575e-02 3.229335039251e-01 0.000000000000e+00
  -4.219381832575e-02 3.463353810286e-01 0.000000000000e+00
  -3.777610950382e-02 3.658601402912e-01 0.000000000000e+00
  -2.846438243627e-02 3.787671404130e-01 0.000000000000e+00
  -1.395024356041e-02 3.824837406251e-01 0.000000000000e+00
  5.115751536039e-03 3.751322263144e-01 0.000000000000e+00
  2.698967057184e-02 3.560060891726e-01 0.000000000000e+00
  4.900019379990e-02 3.258459890118e-01 0.000000000000e+00
  6.804522839706e-02 2.868077619597e-01 0.000000000000e+00
  8.132788011961e-02 2.421021394847e-01 0.000000000000e+00
  8.712835331325e-02 1.953861376227e-01 0.000000000000e+00
  8.535835509210e-02 1.500596581224e-01 0.000000000000e+00
  7.768805861061e-02 1.086408787814e-01 0.000000000000e+00
  6.716406293268e-02 7.235915888381e-02 0.000000000000e+00
  5.740376051989e-02 4.103596406304e-02 0.000000000000e+00
  5.159456138811e-02 1.325235781728e-02 0.000000000000e+00
  0.000000000000e+00 0.000000000000e+00 0.000000000000e+00
  0.000000000000e+00 0.000000000000e+00 0.000000000000e+00
  1.595897026799e-01 -2.177239903654e-02 0.000000000000e+00
  1.590845688352e-01 -6.519441877747e-02 0.000000000000e+00
  1.568306398886e-01 -1.082726111486e-01 0.000000000000e+00
  1.508134986351e-01 -1.508134986351e-01 0.000000000000e+00
  1.390276903711e-01 -1.925479855667e-01 0.000000000000e+00
  1.202897409428e-01 -2.329386342828e-01 0.000000000000e+00
  9.480140471396e-02 -2.709920817659e-01 0.000000000000e+00
  6.427286814141e-02 -3.052021938013e-01 0.000000000000e+00
  3.157588833426e-02 -3.337092938662e-01 0.000000000000e+00
  6.173664206798e-05 -3.546652251745e-01 0.000000000000e+00
  -2.721632119150e-02 -3.666923057020e-01 0.000000000000e+00
  -4.812868884912e-02 -3.692710996316e-01 0.000000000000e+00
  -6.177896660521e-02 -3.629153765376e-01 0.000000000000e+00
  -6.846223668926e-02 -3.490786061473e-01 0.000000000000e+00
  -6.935464950693e-02 -3.298394820314e-01 0.000000000000e+00
  -6.608042886181e-02 -3.074857401704e-01 0.000000000000e+00
  -6.030073326549e-02 -2.841302418567e-01 0.000000000000e+00
  -5.341983792172e-02 -2.614567787869e-01 0.000000000000e+00
  -4.643951236048e-02 -2.406325782655e-01 0.000000000000e+00
  -3.994020864992e-02 -2.223698621362e-01 0.000000000000e+00
  -3.414170942437e-02 -2.070875437845e-01 0.000000000000e+00