# vtk DataFile Version 3.0
Karman Output
ASCII
DATASET RECTILINEAR_GRID
DIMENSIONS 101 101 1
X_COORDINATES 101 float
   0.000000000000e+00   9.900990099010e-03   1.980198019802e-02   2.970297029703e-02   3.960396039604e-02   4.950495049505e-02   5.940594059406e-02   6.930693069307e-02   7.920792079208e-02   8.910891089109e-02   9.900990099010e-02   1.089108910891e-01   1.188118811881e-01   1.287128712871e-01   1.386138613861e-01   1.485148514851e-01   1.584158415842e-01   1.683168316832e-01   1.782178217822e-01   1.881188118812e-01   1.980198019802e-01   2.079207920792e-01   2.178217821782e-01   2.277227722772e-01   2.376237623762e-01   2.475247524752e-01   2.574257425743e-01   2.673267326733e-01   2.772277227723e-01   2.871287128713e-01   2.970297029703e-01   3.069306930693e-01   3.168316831683e-01   3.267326732673e-01   3.366336633663e-01   3.465346534653e-01   3.564356435644e-01   3.663366336634e-01   3.762376237624e-01   3.861386138614e-01   3.960396039604e-01   4.059405940594e-01   4.158415841584e-01   4.257425742574e-01   4.356435643564e-01   4.455445544554e-01   4.554455445545e-01   4.653465346535e-01   4.752475247525e-01   4.851485148515e-01   4.950495049505e-01   5.049504950495e-01   5.148514851485e-01   5.247524752475e-01   5.346534653465e-01   5.445544554455e-01   5.544554455446e-01   5.643564356436e-01   5.742574257426e-01   5.841584158416e-01   5.940594059406e-01   6.039603960396e-01   6.138613861386e-01   6.237623762376e-01   6.336633663366e-01   6.435643564356e-01   6.534653465347e-01   6.633663366337e-01   6.732673267327e-01   6.831683168317e-01   6.930693069307e-01   7.029702970297e-01   7.128712871287e-01   7.227722772277e-01   7.326732673267e-01   7.425742574257e-01   7.524752475248e-01   7.623762376238e-01   7.722772277228e-01   7.821782178218e-01   7.920792079208e-01   8.019801980198e-01   8.118811881188e-01   8.217821782178e-01   8.316831683168e-01   8.415841584158e-01   8.514851485149e-01   8.613861386139e-01   8.712871287129e-01   8.811881188119e-01   8.910891089109e-01   9.009900990099e-01   9.108910891089e-01   9.207920792079e-01   9.306930693069e-01   9.405940594059e-01   9.504950495050e-01   9.603960396040e-01   9.702970297030e-01   9.801980198020e-01   9.900990099010e-01
Y_COORDINATES 101 float
   0.000000000000e+00   9.900990099010e-03   1.980198019802e-02   2.970297029703e-02   3.960396039604e-02   4.950495049505e-02   5.940594059406e-02   6.930693069307e-02   7.920792079208e-02   8.910891089109e-02   9.900990099010e-02   1.089108910891e-01   1.188118811881e-01   1.287128712871e-01   1.386138613861e-01   1.485148514851e-01   1.584158415842e-01   1.683168316832e-01   1.782178217822e-01   1.881188118812e-01   1.980198019802e-01   2.079207920792e-01   2.178217821782e-01   2.277227722772e-01   2.376237623762e-01   2.475247524752e-01   2.574257425743e-01   2.673267326733e-01   2.772277227723e-01   2.871287128713e-01   2.970297029703e-01   3.069306930693e-01   3.168316831683e-01   3.267326732673e-01   3.366336633663e-01   3.465346534653e-01   3.564356435644e-01   3.663366336634e-01   3.762376237624e-01   3.861386138614e-01   3.960396039604e-01   4.059405940594e-01   4.158415841584e-01   4.257425742574e-01   4.356435643564e-01   4.455445544554e-01   4.554455445545e-01   4.653465346535e-01   4.752475247525e-01   4.851485148515e-01   4.950495049505e-01   5.049504950495e-01   5.148514851485e-01   5.247524752475e-01   5.346534653465e-01   5.445544554455e-01   5.544554455446e-01   5.643564356436e-01   5.742574257426e-01   5.841584158416e-01   5.940594059406e-01   6.039603960396e-01   6.138613861386e-01   6.237623762376e-01   6.336633663366e-01   6.435643564356e-01   6.534653465347e-01   6.633663366337e-01   6.732673267327e-01   6.831683168317e-01   6.930693069307e-01   7.029702970297e-01   7.128712871287e-01   7.227722772277e-01   7.326732673267e-01   7.425742574257e-01   7.524752475248e-01   7.623762376238e-01   7.722772277228e-01   7.821782178218e-01   7.920792079208e-01   8.019801980198e-01   8.118811881188e-01   8.217821782178e-01   8.316831683168e-01   8.415841584158e-01   8.514851485149e-01   8.613861386139e-01   8.712871287129e-01   8.811881188119e-01   8.910891089109e-01   9.009900990099e-01   9.108910891089e-01   9.207920792079e-01   9.306930693069e-01   9.405940594059e-01   9.504950495050e-01   9.603960396040e-01   9.702970297030e-01   9.801980198020e-01   9.900990099010e-01
Z_COORDINATES 1 float
  0.000000000000e+00
POINT_DATA 10201
VECTORS E_field float
  0.000000000000e+00 0.000000000000e+00 0.000000000000e+00
  0.000000000000e+00 0.000000000000e+00 0.000000000000e+00
  0.000000000000e+00 0.000000000000e+00 0.000000000000e+00
  0.000000000000e+00 0.000000000000e+00 0.000000000000e+00
  0.000000000000e+00 0.000000000000e+00 0.000000000000e+00
  0.000000000000e+00 0.000000000000e+00 0.000000000000e+00
  0.000000000000e+00 0.000000000000e+00 0.000000000000e+00
  0.000000000000e+00 0.000000000000e+00 0.000000000000e+00
  0.000000000000e+00 0.000000000000e+00 0.000000000000e+00
  0.000000000000e+00 0.000000000000e+00 0.000000000000e+00
  0.000000000000e+00 0.000000000000e+00 0.000000000000e+00
  0.000000000000e+00 0.000000000000e+00 0.000000000000e+00
  0.000000000000e+00 0.000000000000e+00 0.000000000000e+00
  0.000000000000e+00 0.000000000000e+00 0.000000000000e+00
  0.000000000000e+00 0.000000000000e+00 0.000000000000e+00
  0.000000000000e+00 0.000000000000e+00 0.000000000000e+00
  0.000000000000e+00 0.000000000000e+00 0.000000000000e+00
  0.000000000000e+00 0.000000000000e+00 0.000000000000e+00
  0.000000000000e+00 0.000000000000e+00 0.000000000000e+00
  0.000000000000e+00 0.000000000000e+00 0.000000000000e+00
  0.000000000000e+00 0.000000000000e+00 0.000000000000e+00
  0.000000000000e+00 0.000000000000e+00 0.000000000000e+00
  0.000000000000e+00 0.000000000000e+00 0.000000000000e+00
  0.000000000000e+00 0.000000000000e+00 0.000000000000e+00
  0.000000000000e+00 0.000000000000e+00 0.000000000000e+00
  0.000000000000e+00 0.000000000000e+00 0.000000000000e+00
  0.000000000000e+00 0.000000000000e+00 0.000000000000e+00
  0.000000000000e+00 0.000000000000e+00 0.000000000000e+00
  0.000000000000e+00 0.000000000000e+00 0.000000000000e+00
  0.000000000000e+00 0.000000000000e+00 0.000000000000e+00
  0.000000000000e+00 0.000000000000e+00 0.000000000000e+00
  0.000000000000e+00 0.000000000000e+00 0.000000000000e+00
  0.000000000000e+00 0.000000000000e+00 0.000000000000e+00
  0.000000000000e+00 0.000000000000e+00 0.000000000000e+00
  0.000000000000e+00 0.000000000000e+00 0.000000000000e+00
  0.000000000000e+00 0.000000000000e+00 0.000000000000e+00
  0.000000000000e+00 0.000000000000e+00 0.000000000000e+00
  0.000000000000e+00 0.000000000000e+00 0.000000000000e+00
  0.000000000000e+00 0.000000000000e+00 0.000000000000e+00
  0.000000000000e+00 0.000000000000e+00 0.000000000000e+00
  0.000000000000e+00 0.000000000000e+00 0.000000000000e+00
  0.000000000000e+00 0.000000000000e+00 0.000000000000e+00
  0.000000000000e+00 0.000000000000e+00 0.000000000000e+00
  0.000000000000e+00 0.000000000000e+00 0.000000000000e+00
  0.000000000000e+00 0.000000000000e+00 0.000000000000e+00
  0.000000000000e+00 0.000000000000e+00 0.000000000000e+00
  0.000000000000e+00 0.000000000000e+00 0.000000000000e+00
  0.000000000000e+00 0.000000000000e+00 0.000000000000e+00
  0.000000000000e+00 0.000000000000e+00 0.000000000000e+00
  0.000000000000e+00 0.000000000000e+00 0.000000000000e+00
  0.000000000000e+00 0.000000000000e+00 0.000000000000e+00
  0.000000000000e+00 0.000000000000e+00 0.000000000000e+00
  0.000000000000e+00 0.000000000000e+00 0.000000000000e+00
  0.000000000000e+00 0.000000000000e+00 0.000000000000e+00
  0.000000000000e+00 0.000000000000e+00 0.000000000000e+00
  0.000000000000e+00 0.000000000000e+00 0.000000000000e+00
  0.000000000000e+00 0.000000000000e+00 0.000000000000e+00
  0.000000000000e+00 0.000000000000e+00 0.000000000000e+00
  0.000000000000e+00 0.000000000000e+00 0.000000000000e+00
  0.000000000000e+00 0.000000000000e+00 0.000000000000e+00
  0.000000000000e+00 0.000000000000e+00 0.000000000000e+00
  0.000000000000e+00 0.000000000000e+00 0.000000000000e+00
  0.000000000000e+00 0.000000000000e+00 0.000000000000e+00
  0.000000000000e+00 0.000000000000e+00 0.000000000000e+00
  0.000000000000e+00 0.000000000000e+00 0.000000000000e+00
  0.000000000000e+00 0.000000000000e+00 0.000000000000e+00
  0.000000000000e+00 0.000000000000e+00 0.000000000000e+00
  0.000000000000e+00 0.000000000000e+00 0.000000000000e+00
  0.000000000000e+00 0.000000000000e+00 0.000000000000e+00
  0.000000000000e+00 0.000000000000e+00 0.000000000000e+00
  0.000000000000e+00 0.000000000000e+00 0.000000000000e+00
  0.000000000000e+00 0.000000000000e+00 0.000000000000e+00
  0.000000000000e+00 0.000000000000e+00 0.000000000000e+00
  0.000000000000e+00 0.000000000000e+00 0.000000000000e+00
  0.000000000000e+00 0.000000000000e+00 0.000000000000e+00
  0.000000000000e+00 0.000000000000e+00 0.000000000000e+00
  0.000000000000e+00 0.000000000000e+00 0.000000000000e+00
  0.000000000000e+00 0.000000000000e+00 0.000000000000e+00
  0.000000000000e+00 0.000000000000e+00 0.000000000000e+00
  0.000000000000e+00 0.000000000000e+00 0.000000000000e+00
  0.000000000000e+00 0.000000000000e+00 0.000000000000e+00
  0.000000000000e+00 0.000000000000e+00 0.000000000000e+00
  0.000000000000e+00 0.000000000000e+00 0.000000000000e+00
  0.000000000000e+00 0.000000000000e+00 0.000000000000e+00
  0.000000000000e+00 0.000000000000e+00 0.000000000000e+00
  0.000000000000e+00 0.000000000000e+00 0.000000000000e+00
  0.000000000000e+00 0.000000000000e+00 0.000000000000e+00
  0.000000000000e+00 0.000000000000e+00 0.000000000000e+00
  0.000000000000e+00 0.000000000000e+00 0.000000000000e+00
  0.000000000000e+00 0.000000000000e+00 0.000000000000e+00
  0.000000000000e+00 0.000000000000e+00 0.000000000000e+00
  0.000000000000e+00 0.000000000000e+00 0.000000000000e+00
  0.000000000000e+00 0.000000000000e+00 0.000000000000e+00
  0.000000000000e+00 0.000000000000e+00 0.000000000000e+00
  0.000000000000e+00 0.000000000000e+00 0.000000000000e+00
  0.000000000000e+00 0.000000000000e+00 0.000000000000e+00
  0.000000000000e+00 0.000000000000e+00 0.000000000000e+00
  0.000000000000e+00 0.000000000000e+00 0.000000000000e+00
  0.000000000000e+00 0.000000000000e+00 0.000000000000e+00
  0.000000000000e+00 0.000000000000e+00 0.000000000000e+00
  0.000000000000e+00 0.000000000000e+00 0.000000000000e+00
  0.000000000000e+00 0.000000000000e+00 0.000000000000e+00
  1.798233336880e-03 -1.798233336880e-03 0.000000000000e+00
  1.967817133339e-03 -7.195614228644e-03 0.000000000000e+00
  2.262341157650e-03 -1.771918806901e-02 0.000000000000e+00
  2.598801043653e-03 -3.577899823697e-02 0.000000000000e+00
  2.871078466132e-03 -6.214181035713e-02 0.000000000000e+00
  2.974410953017e-03 -9.542779361554e-02 0.000000000000e+00
  2.832591361802e-03 -1.322463559236e-01 0.000000000000e+00
  2.416615886973e-03 -1.680872752505e-01 0.000000000000e+00
  1.746262752145e-03 -1.985839112235e-01 0.000000000000e+00
  8.755408121904e-04 -2.204761734702e-01 0.000000000000e+00
  -1.278606659366e-04 -2.317883856883e-01 0.000000000000e+00
  -1.197250169345e-03 -2.312922133245e-01 0.000000000000e+00
  -2.271046016235e-03 -2.178441282513e-01 0.000000000000e+00
  -3.292281291965e-03 -1.902802211502e-01 0.000000000000e+00
  -4.215271788801e-03 -1.481300731791e-01 0.000000000000e+00
  -5.026910758399e-03 -9.275500771956e-02 0.000000000000e+00
  -5.777240285259e-03 -2.808019076273e-02 0.000000000000e+00
  -6.600651325517e-03 3.980288942640e-02 0.000000000000e+00
  -7.705138809824e-03 1.042677035119e-01 0.000000000000e+00
  -9.317870270272e-03 1.603577728395e-01 0.000000000000e+00
  -1.159749342272e-02 2.064650946870e-01 0.000000000000e+00
  -1.454565476362e-02 2.445418993291e-01 0.000000000000e+00
  -1.795884786346e-02 2.785971388888e-01 0.000000000000e+00
  -2.145001410774e-02 3.120929785755e-01 0.000000000000e+00
  -2.454142252771e-02 3.454536688752e-01 0.000000000000e+00
  -2.679947235059e-02 3.749295083918e-01 0.000000000000e+00
  -2.796305933344e-02 3.934918929721e-01 0.000000000000e+00
  -2.801866950159e-02 3.935190267957e-01 0.000000000000e+00
  -2.719607276482e-02 3.701847829269e-01 0.000000000000e+00
  -2.588862402900e-02 3.240894468238e-01 0.000000000000e+00
  -2.452864192151e-02 2.619615364694e-01 0.000000000000e+00
  -2.346068110152e-02 1.950838329132e-01 0.000000000000e+00
  -2.285056341577e-02 1.360592629384e-01 0.000000000000e+00
  -2.265094609375e-02 9.518141797064e-02 0.000000000000e+00
  -2.262483511795e-02 7.774010809032e-02 0.000000000000e+00
  -2.241478482845e-02 8.310986134007e-02 0.000000000000e+00
  -2.163906451942e-02 1.057194917669e-01 0.000000000000e+00
  -1.999315104670e-02 1.373263371209e-01 0.000000000000e+00
  -1.733257636710e-02 1.696539923946e-01 0.000000000000e+00
  -1.371359737514e-02 1.964650152536e-01 0.000000000000e+00
  -9.376714067107e-03 2.144696057158e-01 0.000000000000e+00
  -4.676519365568e-03 2.229826648029e-01 0.000000000000e+00
  1.686440900151e-05 2.227487025613e-01 0.000000000000e+00
  4.406742628864e-03 2.146484145089e-01 0.000000000000e+00
  8.316666245623e-03 1.989382266301e-01 0.000000000000e+00
  1.168461086959e-02 1.752870499680e-01 0.000000000000e+00
  1.451988437121e-02 1.433952071045e-01 0.000000000000e+00
  1.685249016861e-02 1.037025271506e-01 0.000000000000e+00
  1.870008728949e-02 5.775443971746e-02 0.000000000000e+00
  2.005937500873e-02 8.081547602816e-03 0.000000000000e+00
  2.091036708448e-02 -4.228420353807e-02 0.000000000000e+00
  2.121614045968e-02 -9.043153785408e-02 0.000000000000e+00
  2.091042179310e-02 -1.341239785252e-01 0.000000000000e+00
  1.988284928296e-02 -1.721076142012e-01 0.000000000000e+00
  1.798318297081e-02 -2.040190339028e-01 0.000000000000e+00
  1.506089156075e-02 -2.298564319961e-01 0.000000000000e+00
  1.103622237252e-02 -2.492216084708e-01 0.000000000000e+00
  5.975441171688e-03 -2.607782163111e-01 0.000000000000e+00
  1.324913258797e-04 -2.623851480597e-01 0.000000000000e+00
  -6.069724111293e-03 -2.520637538502e-01 0.000000000000e+00
  -1.211849995656e-02 -2.294868561901e-01 0.000000000000e+00
  -1.752415111204e-02 -1.973116788265e-01 0.000000000000e+00
  -2.192729453847e-02 -1.616279365164e-01 0.000000000000e+00
  -2.516727670233e-02 -1.310843561374e-01 0.000000000000e+00
  -2.729547830427e-02 -1.147636941161e-01 0.000000000000e+00
  -2.853480247111e-02 -1.194063830688e-01 0.000000000000e+00
  -2.919886110031e-02 -1.469463801295e-01 0.000000000000e+00
  -2.959186939418e-02 -1.933597611390e-01 0.000000000000e+00
  -2.991544560669e-02 -2.494526136407e-01 0.000000000000e+00
  -3.021021294751e-02 -3.034983830599e-01 0.000000000000e+00
  -3.035367599598e-02 -3.448392811982e-01 0.000000000000e+00
  -3.011871522436e-02 -3.670695700022e-01 0.000000000000e+00
  -2.927374743601e-02 -3.695152463817e-01 0.000000000000e+00
  -2.768689286290e-02 -3.564308874042e-01 0.000000000000e+00
  -2.539278948264e-02 -3.343398681671e-01 0.000000000000e+00
  -2.259522860684e-02 -3.087631975715e-01 0.000000000000e+00
  -1.960545229303e-02 -2.818152394335e-01 0.000000000000e+00
  -1.674264363680e-02 -2.516891036647e-01 0.000000000000e+00
  -1.423778296246e-02 -2.141462859201e-01 0.000000000000e+00
  -1.217819881172e-02 -1.652036758147e-01 0.000000000000e+00
  -1.051003818876e-02 -1.037009063153e-01 0.000000000000e+00
  -9.089571987471e-03 -3.255204273238e-02 0.000000000000e+00
  -7.754739039781e-03 4.183706873579e-02 0.000000000000e+00
  -6.384618351934e-03 1.116076350481e-01 0.000000000000e+00
  -4.926627773678e-03 1.698973299065e-01 0.000000000000e+00
  -3.390646416393e-03 2.125549372414e-01 0.000000000000e+00
  -1.824558236014e-03 2.384775160036e-01 0.000000000000e+00
  -2.896664989964e-04 2.487268853570e-01 0.000000000000e+00
  1.152522304821e-03 2.452051441505e-01 0.000000000000e+00
  2.442061329108e-03 2.297632011790e-01 0.000000000000e+00
  3.519090489376e-03 2.041692413194e-01 0.000000000000e+00
  4.328201770733e-03 1.707013731598e-01 0.000000000000e+00
  4.831738578559e-03 1.326952428391e-01 0.000000000000e+00
  5.026856914296e-03 9.444435383673e-02 0.000000000000e+00
  4.956336218725e-03 6.033983357466e-02 0.000000000000e+00
  4.705160778157e-03 3.368010112406e-02 0.000000000000e+00
  4.382491081446e-03 1.578991937201e-02 0.000000000000e+00
  4.096351027113e-03 5.842262541497e-03 0.000000000000e+00
  3.930700229437e-03 1.311455815341e-03 0.000000000000e+00
  0.000000000000e+00 0.000000000000e+00 0.000000000000e+00
  0.000000000000e+00 0.000000000000e+00 0.000000000000e+00
  7.195614228645e-03 -1.967817133338e-03 0.000000000000e+00
  7.658346037260e-03 -7.658346037260e-03 0.000000000000e+00
  8.450004355854e-03 -1.834263860330e-02 0.000000000000e+00
  9.323208576443e-03 -3.636521180927e-02 0.000000000000e+00
  9.964114792963e-03 -6.246878042383e-02 0.000000000000e+00
  1.006577720549e-02 -9.530581844826e-02 0.000000000000e+00
  9.408227331694e-03 -1.315689616259e-01 0.000000000000e+00
  7.912760037486e-03 -1.668532267792e-01 0.000000000000e+00
  5.646274215112e-03 -1.968811207376e-01 0.000000000000e+00
  2.778594864455e-03 -2.184405626655e-01 0.000000000000e+00
  -4.781432204456e-04 -2.295638569300e-01 0.000000000000e+00
  -3.913988425608e-03 -2.290115073742e-01 0.000000000000e+00
  -7.335813590509e-03 -2.156292131898e-01 0.000000000000e+00
  -1.056863638024e-02 -1.882410781463e-01 0.000000000000e+00
  -1.347666129678e-02 -1.463382007696e-01 0.000000000000e+00
  -1.602473141123e-02 -9.118717104496e-02 0.000000000000e+00
  -1.836428029191e-02 -2.655814902979e-02 0.000000000000e+00
  -2.089020188320e-02 4.163018032500e-02 0.000000000000e+00
  -2.420469524407e-02 1.068593934585e-01 0.000000000000e+00
  -2.895625446756e-02 1.641303735768e-01 0.000000000000e+00
  -3.558602647366e-02 2.116018891082e-01 0.000000000000e+00
  -4.407626974844e-02 2.508435095236e-01 0.000000000000e+00
  -5.381863206719e-02 2.854510841129e-01 0.000000000000e+00
  -6.368443154191e-02 3.185959990704e-01 0.000000000000e+00
  -7.229808108956e-02 3.506557063480e-01 0.000000000000e+00
  -7.842671090404e-02 3.781141505564e-01 0.000000000000e+00
  -8.134626829051e-02 3.943903951768e-01 0.000000000000e+00
  -8.105082468152e-02 3.923806911502e-01 0.000000000000e+00
  -7.823271320936e-02 3.676824103635e-01 0.000000000000e+00
  -7.404788257672e-02 3.210995400188e-01 0.000000000000e+00
  -6.975588112581e-02 2.592994597161e-01 0.000000000000e+00
  -6.635768051273e-02 1.932797482336e-01 0.000000000000e+00
  -6.433868396158e-02 1.352342333815e-01 0.000000000000e+00
  -6.357416155948e-02 9.504230780426e-02 0.000000000000e+00
  -6.339864206589e-02 7.767758778895e-02 0.000000000000e+00
  -6.280246024821e-02 8.236614953721e-02 0.000000000000e+00
  -6.070182503203e-02 1.035868480496e-01 0.000000000000e+00
  -5.622236057352e-02 1.333336029153e-01 0.000000000000e+00
  -4.893075904293e-02 1.636945504031e-01 0.000000000000e+00
  -3.895039330219e-02 1.888251125319e-01 0.000000000000e+00
  -2.691959102969e-02 2.057418228846e-01 0.000000000000e+00
  -1.380151476518e-02 2.138921767053e-01 0.000000000000e+00
  -6.145750163683e-04 2.139588671834e-01 0.000000000000e+00
  1.181214820899e-02 2.066216484999e-01 0.000000000000e+00
  2.296888598812e-02 1.918983313102e-01 0.000000000000e+00
  3.265174412704e-02 1.692761425974e-01 0.000000000000e+00
  4.084827899691e-02 1.383743061765e-01 0.000000000000e+00
  4.760359184449e-02 9.963550950103e-02 0.000000000000e+00
  5.293504295749e-02 5.464240918887e-02 0.000000000000e+00
  5.681284141792e-02 5.956491990023e-03 0.000000000000e+00
  5.917364165412e-02 -4.337094022056e-02 0.000000000000e+00
  5.991918324178e-02 -9.039611614128e-02 0.000000000000e+00
  5.887994874953e-02 -1.328144471088e-01 0.000000000000e+00
  5.577220273251e-02 -1.692818271395e-01 0.000000000000e+00
  5.020770322092e-02 -1.993806552041e-01 0.000000000000e+00
  4.180110017152e-02 -2.231659163068e-01 0.000000000000e+00
  3.036342947966e-02 -2.404497843534e-01 0.000000000000e+00
  1.610573826662e-02 -2.502315680845e-01 0.000000000000e+00
  -2.509600225481e-04 -2.507321482136e-01 0.000000000000e+00
  -1.753187417604e-02 -2.402336241580e-01 0.000000000000e+00
  -3.432903923991e-02 -2.184710450149e-01 0.000000000000e+00
  -4.931127572996e-02 -1.879396023877e-01 0.000000000000e+00
  -6.151570778665e-02 -1.543924374947e-01 0.000000000000e+00
  -7.053067152642e-02 -1.260649092710e-01 0.000000000000e+00
  -7.652707968070e-02 -1.116585312365e-01 0.000000000000e+00
  -8.014273409648e-02 -1.176565673721e-01 0.000000000000e+00
  -8.225637813144e-02 -1.459184931658e-01 0.000000000000e+00
  -8.370848689899e-02 -1.925425310435e-01 0.000000000000e+00
  -8.504101094370e-02 -2.486137434801e-01 0.000000000000e+00
  -8.633455149875e-02 -3.027489453251e-01 0.000000000000e+00
  -8.720459350064e-02 -3.445752138828e-01 0.000000000000e+00
  -8.697036173426e-02 -3.678028298556e-01 0.000000000000e+00
  -8.494325276581e-02 -3.716540632851e-01 0.000000000000e+00
  -8.072749852568e-02 -3.600946793140e-01 0.000000000000e+00
  -7.441400797194e-02 -3.392836701913e-01 0.000000000000e+00
  -6.658911474391e-02 -3.144418496511e-01 0.000000000000e+00
  -5.815634042083e-02 -2.875591379907e-01 0.000000000000e+00
  -5.004673633056e-02 -2.569176178540e-01 0.000000000000e+00
  -4.293688166275e-02 -2.185324870730e-01 0.000000000000e+00
  -3.708390482286e-02 -1.687300356525e-01 0.000000000000e+00
  -3.232950361324e-02 -1.065971083101e-01 0.000000000000e+00
  -2.824836633266e-02 -3.515744421944e-02 0.000000000000e+00
  -2.435839934859e-02 3.921767029109e-02 0.000000000000e+00
  -2.029770910152e-02 1.087962225579e-01 0.000000000000e+00
  -1.590755904542e-02 1.668606017623e-01 0.000000000000e+00
  -1.121732579465e-02 2.093654507775e-01 0.000000000000e+00
  -6.373289813067e-03 2.352568783055e-01 0.000000000000e+00
  -1.565766434725e-03 2.456051079397e-01 0.000000000000e+00
  3.010892711089e-03 2.423080736182e-01 0.000000000000e+00
  7.164685175647e-03 2.272169402225e-01 0.000000000000e+00
  1.070279694666e-02 2.021003613446e-01 0.000000000000e+00
  1.344561005850e-02 1.692183287414e-01 0.000000000000e+00
  1.526692133841e-02 1.318534391698e-01 0.000000000000e+00
  1.614508940809e-02 9.421287110062e-02 0.000000000000e+00
  1.619570921730e-02 6.059121719714e-02 0.000000000000e+00
  1.566235530807e-02 3.421324685138e-02 0.000000000000e+00
  1.486395272954e-02 1.637784591993e-02 0.000000000000e+00
  1.411973137967e-02 6.284697397789e-03 0.000000000000e+00
  1.367992668255e-02 1.474476453838e-03 0.000000000000e+00
  0.000000000000e+00 0.000000000000e+00 0.000000000000e+00
  0.000000000000e+00 0.000000000000e+00 0.000000000000e+00
  1.771918806901e-02 -2.262341157649e-03 0.000000000000e+00
  1.834263860330e-02 -8.450004355854e-03 0.000000000000e+00
  1.936859567825e-02 -1.936859567825e-02 0.000000000000e+00
  2.039280854455e-02 -3.723667182121e-02 0.000000000000e+00
  2.090978232531e-02 -6.275520040918e-02 0.000000000000e+00
  2.043394889333e-02 -9.464522744344e-02 0.000000000000e+00
  1.862748357159e-02 -1.297655374352e-01 0.000000000000e+00
  1.538504784431e-02 -1.639187479484e-01 0.000000000000e+00
  1.083979883548e-02 -1.930038647372e-01 0.000000000000e+00
  5.295884770076e-03 -2.139062252499e-01 0.000000000000e+00
  -8.684440271174e-04 -2.246771274635e-01 0.000000000000e+00
  -7.275525638797e-03 -2.240553100238e-01 0.000000000000e+00
  -1.357926246873e-02 -2.108598485454e-01 0.000000000000e+00
  -1.947579588721e-02 -1.838810865826e-01 0.000000000000e+00
  -2.474179694885e-02 -1.425241663552e-01 0.000000000000e+00
  -2.932949060587e-02 -8.786544168794e-02 0.000000000000e+00
  -3.349242035284e-02 -2.337739975916e-02 0.000000000000e+00
  -3.786013620669e-02 4.534306849950e-02 0.000000000000e+00
  -4.336694470935e-02 1.119678071475e-01 0.000000000000e+00
  -5.099185492560e-02 1.713984293275e-01 0.000000000000e+00
  -6.136577397029e-02 2.213375244082e-01 0.000000000000e+00
  -7.439503495979e-02 2.626273784878e-01 0.000000000000e+00
  -8.907992434086e-02 2.980944668486e-01 0.000000000000e+00
  -1.036467873271e-01 3.303852787958e-01 0.000000000000e+00
  -1.159856956184e-01 3.598189844616e-01 0.000000000000e+00
  -1.242529005889e-01 3.833467072277e-01 0.000000000000e+00
  -1.274220717898e-01 3.952465670928e-01 0.000000000000e+00
  -1.255844721191e-01 3.893914759545e-01 0.000000000000e+00
  -1.198956161691e-01 3.621646581372e-01 0.000000000000e+00
  -1.121992467393e-01 3.147360921829e-01 0.000000000000e+00
  -1.044711714549e-01 2.536428308174e-01 0.000000000000e+00
  -9.827201585395e-02 1.893390209197e-01 0.000000000000e+00
  -9.436854941251e-02 1.332524977057e-01 0.000000000000e+00
  -9.260338372284e-02 9.449435539393e-02 0.000000000000e+00
  -9.200735247465e-02 7.745398946814e-02 0.000000000000e+00
  -9.109313820247e-02 8.107935178717e-02 0.000000000000e+00
  -8.824840672545e-02 9.992827913890e-02 0.000000000000e+00
  -8.214324459061e-02 1.264075452854e-01 0.000000000000e+00
  -7.206310628390e-02 1.532488682774e-01 0.000000000000e+00
  -5.808036707024e-02 1.753076898239e-01 0.000000000000e+00
  -4.100716699327e-02 1.901552434131e-01 0.000000000000e+00
  -2.214024866195e-02 1.974937618089e-01 0.000000000000e+00
  -2.891953977370e-03 1.979220479369e-01 0.000000000000e+00
  1.554787690474e-02 1.917919139903e-01 0.000000000000e+00
  3.239460086563e-02 1.787246044818e-01 0.000000000000e+00
  4.725674183421e-02 1.579048707510e-01 0.000000000000e+00
  5.998936885749e-02 1.288164165644e-01 0.000000000000e+00
  7.052588012828e-02 9.190157539635e-02 0.000000000000e+00
  7.877960509006e-02 4.879116755038e-02 0.000000000000e+00
  8.463377481661e-02 2.075765669868e-03 0.000000000000e+00
  8.796935759270e-02 -4.518659681189e-02 0.000000000000e+00
  8.866258528571e-02 -9.001922886841e-02 0.000000000000e+00
  8.652668938014e-02 -1.300162041561e-01 0.000000000000e+00
  8.124165685353e-02 -1.636872918367e-01 0.000000000000e+00
  7.235805991458e-02 -1.905270944305e-01 0.000000000000e+00
  5.943849668450e-02 -2.106933112251e-01 0.000000000000e+00
  4.231884978923e-02 -2.243650722857e-01 0.000000000000e+00
  2.138138214132e-02 -2.311211217105e-01 0.000000000000e+00
  -2.305061320979e-03 -2.297994532128e-01 0.000000000000e+00
  -2.707554965503e-02 -2.191149169905e-01 0.000000000000e+00
  -5.098275289907e-02 -1.988853841308e-01 0.000000000000e+00
  -7.222558515760e-02 -1.713001947187e-01 0.000000000000e+00
  -8.954327072871e-02 -1.415097276778e-01 0.000000000000e+00
  -1.024539746189e-01 -1.170219515561e-01 0.000000000000e+00
  -1.112836344479e-01 -1.058754210327e-01 0.000000000000e+00
  -1.169934804395e-01 -1.141141772091e-01 0.000000000000e+00
  -1.208555418909e-01 -1.434851778667e-01 0.000000000000e+00
  -1.240524035112e-01 -1.903268759687e-01 0.000000000000e+00
  -1.273020220459e-01 -2.462472559831e-01 0.000000000000e+00
  -1.306226093862e-01 -3.005013049308e-01 0.000000000000e+00
  -1.333321016121e-01 -3.432433200513e-01 0.000000000000e+00
  -1.343069711921e-01 -3.683940858745e-01 0.000000000000e+00
  -1.324242076642e-01 -3.749726797628e-01 0.000000000000e+00
  -1.270252861096e-01 -3.663907386312e-01 0.000000000000e+00
  -1.182193048422e-01 -3.481070826952e-01 0.000000000000e+00
  -1.069014728392e-01 -3.247611623782e-01 0.000000000000e+00
  -9.447904953665e-02 -2.980950228893e-01 0.000000000000e+00
  -8.241773755990e-02 -2.665526490224e-01 0.000000000000e+00
  -7.179279467393e-02 -2.266322534583e-01 0.000000000000e+00
  -6.301870072652e-02 -1.752573400545e-01 0.000000000000e+00
  -5.584483380238e-02 -1.119980720419e-01 0.000000000000e+00
  -4.958458267054e-02 -4.009786890010e-02 0.000000000000e+00
  -4.345063778870e-02 3.413418310583e-02 0.000000000000e+00
  -3.684448093424e-02 1.032128626416e-01 0.000000000000e+00
  -2.949864777671e-02 1.607079784650e-01 0.000000000000e+00
  -2.146021853318e-02 2.027894115805e-01 0.000000000000e+00
  -1.297960668869e-02 2.285082696764e-01 0.000000000000e+00
  -4.392249607469e-03 2.389588361092e-01 0.000000000000e+00
  3.949405881503e-03 2.360360308139e-01 0.000000000000e+00
  1.169055512205e-02 2.215940413217e-01 0.000000000000e+00
  1.847298109417e-02 1.974027225022e-01 0.000000000000e+00
  2.396077752549e-02 1.656853580406e-01 0.000000000000e+00
  2.790723270946e-02 1.296186434067e-01 0.000000000000e+00
  3.023868509334e-02 9.323804641014e-02 0.000000000000e+00
  3.110896848395e-02 6.064513868780e-02 0.000000000000e+00
  3.088716014685e-02 3.491448760704e-02 0.000000000000e+00
  3.007517537216e-02 1.728699251749e-02 0.000000000000e+00
  2.918655777458e-02 7.008389747690e-03 0.000000000000e+00
  2.863037940157e-02 1.746767174058e-03 0.000000000000e+00
  0.000000000000e+00 0.000000000000e+00 0.000000000000e+00
  0.000000000000e+00 0.000000000000e+00 0.000000000000e+00
  3.577899823697e-02 -2.598801043653e-03 0.000000000000e+00
  3.636521180927e-02 -9.323208576443e-03 0.000000000000e+00
  3.723667182121e-02 -2.039280854454e-02 0.000000000000e+00
  3.785038154254e-02 -3.785038154254e-02 0.000000000000e+00
  3.754080406832e-02 -6.234888699441e-02 0.000000000000e+00
  3.568490078572e-02 -9.271980414364e-02 0.000000000000e+00
  3.186816145340e-02 -1.260677560809e-01 0.000000000000e+00
  2.599119763169e-02 -1.584971297537e-01 0.000000000000e+00
  1.827609346469e-02 -1.861651297561e-01 0.000000000000e+00
  9.180328006799e-03 -2.061052807077e-01 0.000000000000e+00
  -7.288312225774e-04 -2.164045839791e-01 0.000000000000e+00
  -1.087790640166e-02 -2.157716967174e-01 0.000000000000e+00
  -2.074174739415e-02 -2.029758840293e-01 0.000000000000e+00
  -2.987396098547e-02 -1.767363040888e-01 0.000000000000e+00
  -3.796646601419e-02 -1.363104427586e-01 0.000000000000e+00
  -4.496871008458e-02 -8.248922755711e-02 0.000000000000e+00
  -5.123157315818e-02 -1.832782106941e-02 0.000000000000e+00
  -5.757614835800e-02 5.100578086342e-02 0.000000000000e+00
  -6.517666757728e-02 1.194124225056e-01 0.000000000000e+00
  -7.521560335791e-02 1.816176599664e-01 0.000000000000e+00
  -8.839193239841e-02 2.346685418546e-01 0.000000000000e+00