# vtk DataFile Version 3.0
Karman Output
ASCII
DATASET RECTILINEAR_GRID
DIMENSIONS 101 101 1
X_COORDINATES 101 float
   0.000000000000e+00   9.900990099010e-03   1.980198019802e-02   2.970297029703e-02   3.960396039604e-02   4.950495049505e-02   5.940594059406e-02   6.930693069307e-02   7.920792079208e-02   8.910891089109e-02   9.900990099010e-02   1.089108910891e-01   1.188118811881e-01   1.287128712871e-01   1.386138613861e-01   1.485148514851e-01   1.584158415842e-01   1.683168316832e-01   1.782178217822e-01   1.881188118812e-01   1.980198019802e-01   2.079207920792e-01   2.178217821782e-01   2.277227722772e-01   2.376237623762e-01   2.475247524752e-01   2.574257425743e-01   2.673267326733e-01   2.772277227723e-01   2.871287128713e-01   2.970297029703e-01   3.069306930693e-01   3.168316831683e-01   3.267326732673e-01   3.366336633663e-01   3.465346534653e-01   3.564356435644e-01   3.663366336634e-01   3.762376237624e-01   3.861386138614e-01   3.960396039604e-01   4.059405940594e-01   4.158415841584e-01   4.257425742574e-01   4.356435643564e-01   4.455445544554e-01   4.554455445545e-01   4.653465346535e-01   4.752475247525e-01   4.851485148515e-01   4.950495049505e-01   5.049504950495e-01   5.148514851485e-01   5.247524752475e-01   5.346534653465e-01   5.445544554455e-01   5.544554455446e-01   5.643564356436e-01   5.742574257426e-01   5.841584158416e-01   5.940594059406e-01   6.039603960396e-01   6.138613861386e-01   6.237623762376e-01   6.336633663366e-01   6.435643564356e-01   6.534653465347e-01   6.633663366337e-01   6.732673267327e-01   6.831683168317e-01   6.930693069307e-01   7.029702970297e-01   7.128712871287e-01   7.227722772277e-01   7.326732673267e-01   7.425742574257e-01   7.524752475248e-01   7.623762376238e-01   7.722772277228e-01   7.821782178218e-01   7.920792079208e-01   8.019801980198e-01   8.118811881188e-01   8.217821782178e-01   8.316831683168e-01   8.415841584158e-01   8.514851485149e-01   8.613861386139e-01   8.712871287129e-01   8.811881188119e-01   8.910891089109e-01   9.009900990099e-01   9.108910891089e-01   9.207920792079e-01   9.306930693069e-01   9.405940594059e-01   9.504950495050e-01   9.603960396040e-01   9.702970297030e-01   9.801980198020e-01   9.900990099010e-01
Y_COORDINATES 101 float
   0.000000000000e+00   9.900990099010e-03   1.980198019802e-02   2.970297029703e-02   3.960396039604e-02   4.950495049505e-02   5.940594059406e-02   6.930693069307e-02   7.920792079208e-02   8.910891089109e-02   9.900990099010e-02   1.089108910891e-01   1.188118811881e-01   1.287128712871e-01   1.386138613861e-01   1.485148514851e-01   1.584158415842e-01   1.683168316832e-01   1.782178217822e-01   1.881188118812e-01   1.980198019802e-01   2.079207920792e-01   2.178217821782e-01   2.277227722772e-01   2.376237623762e-01   2.475247524752e-01   2.574257425743e-01   2.673267326733e-01   2.772277227723e-01   2.871287128713e-01   2.970297029703e-01   3.069306930693e-01   3.168316831683e-01   3.267326732673e-01   3.366336633663e-01   3.465346534653e-01   3.564356435644e-01   3.663366336634e-01   3.762376237624e-01   3.861386138614e-01   3.960396039604e-01   4.059405940594e-01   4.158415841584e-01   4.257425742574e-01   4.356435643564e-01   4.455445544554e-01   4.554455445545e-01   4.653465346535e-01   4.752475247525e-01   4.851485148515e-01   4.950495049505e-01   5.049504950495e-01   5.148514851485e-01   5.247524752475e-01   5.346534653465e-01   5.445544554455e-01   5.544554455446e-01   5.643564356436e-01   5.742574257426e-01   5.841584158416e-01   5.940594059406e-01   6.039603960396e-01   6.138613861386e-01   6.237623762376e-01   6.336633663366e-01   6.435643564356e-01   6.534653465347e-01   6.633663366337e-01   6.732673267327e-01   6.831683168317e-01   6.930693069307e-01   7.029702970297e-01   7.128712871287e-01   7.227722772277e-01   7.326732673267e-01   7.425742574257e-01   7.524752475248e-01   7.623762376238e-01   7.722772277228e-01   7.821782178218e-01   7.920792079208e-01   8.019801980198e-01   8.118811881188e-01   8.217821782178e-01   8.316831683168e-01   8.415841584158e-01   8.514851485149e-01   8.613861386139e-01   8.712871287129e-01   8.811881188119e-01   8.910891089109e-01   9.009900990099e-01   9.108910891089e-01   9.207920792079e-01   9.306930693069e-01   9.405940594059e-01   9.504950495050e-01   9.603960396040e-01   9.702970297030e-01   9.801980198020e-01   9.900990099010e-01
Z_COORDINATES 1 float
  0.000000000000e+00
POINT_DATA 10201
VECTORS E_field float
  0.000000000000e+00 0.000000000000e+00 0.000000000000e+00
  0.000000000000e+00 0.000000000000e+00 0.000000000000e+00
  0.000000000000e+00 0.000000000000e+00 0.000000000000e+00
  0.000000000000e+00 0.000000000000e+00 0.000000000000e+00
  0.000000000000e+00 0.000000000000e+00 0.000000000000e+00
  0.000000000000e+00 0.000000000000e+00 0.000000000000e+00
  0.000000000000e+00 0.000000000000e+00 0.000000000000e+00
  0.000000000000e+00 0.000000000000e+00 0.000000000000e+00
  0.000000000000e+00 0.000000000000e+00 0.000000000000e+00
  0.000000000000e+00 0.000000000000e+00 0.000000000000e+00
  0.000000000000e+00 0.000000000000e+00 0.000000000000e+00
  0.000000000000e+00 0.000000000000e+00 0.000000000000e+00
  0.000000000000e+00 0.000000000000e+00 0.000000000000e+00
  0.000000000000e+00 0.000000000000e+00 0.000000000000e+00
  0.000000000000e+00 0.000000000000e+00 0.000000000000e+00
  0.000000000000e+00 0.000000000000e+00 0.000000000000e+00
  0.000000000000e+00 0.000000000000e+00 0.000000000000e+00
  0.000000000000e+00 0.000000000000e+00 0.000000000000e+00
  0.000000000000e+00 0.000000000000e+00 0.000000000000e+00
  0.000000000000e+00 0.000000000000e+00 0.000000000000e+00
  0.000000000000e+00 0.000000000000e+00 0.000000000000e+00
  0.000000000000e+00 0.000000000000e+00 0.000000000000e+00
  0.000000000000e+00 0.000000000000e+00 0.000000000000e+00
  0.000000000000e+00 0.000000000000e+00 0.000000000000e+00
  0.000000000000e+00 0.000000000000e+00 0.000000000000e+00
  0.000000000000e+00 0.000000000000e+00 0.000000000000e+00
  0.000000000000e+00 0.000000000000e+00 0.000000000000e+00
  0.000000000000e+00 0.000000000000e+00 0.000000000000e+00
  0.000000000000e+00 0.000000000000e+00 0.000000000000e+00
  0.000000000000e+00 0.000000000000e+00 0.000000000000e+00
  0.000000000000e+00 0.000000000000e+00 0.000000000000e+00
  0.000000000000e+00 0.000000000000e+00 0.000000000000e+00
  0.000000000000e+00 0.000000000000e+00 0.000000000000e+00
  0.000000000000e+00 0.000000000000e+00 0.000000000000e+00
  0.000000000000e+00 0.000000000000e+00 0.000000000000e+00
  0.000000000000e+00 0.000000000000e+00 0.000000000000e+00
  0.000000000000e+00 0.000000000000e+00 0.000000000000e+00
  0.000000000000e+00 0.000000000000e+00 0.000000000000e+00
  0.000000000000e+00 0.000000000000e+00 0.000000000000e+00
  0.000000000000e+00 0.000000000000e+00 0.000000000000e+00
  0.000000000000e+00 0.000000000000e+00 0.000000000000e+00
  0.000000000000e+00 0.000000000000e+00 0.000000000000e+00
  0.000000000000e+00 0.000000000000e+00 0.000000000000e+00
  0.000000000000e+00 0.000000000000e+00 0.000000000000e+00
  0.000000000000e+00 0.000000000000e+00 0.000000000000e+00
  0.000000000000e+00 0.000000000000e+00 0.000000000000e+00
  0.000000000000e+00 0.000000000000e+00 0.000000000000e+00
  0.000000000000e+00 0.000000000000e+00 0.000000000000e+00
  0.000000000000e+00 0.000000000000e+00 0.000000000000e+00
  0.000000000000e+00 0.000000000000e+00 0.000000000000e+00
  0.000000000000e+00 0.000000000000e+00 0.000000000000e+00
  0.000000000000e+00 0.000000000000e+00 0.000000000000e+00
  0.000000000000e+00 0.000000000000e+00 0.000000000000e+00
  0.000000000000e+00 0.000000000000e+00 0.000000000000e+00
  0.000000000000e+00 0.000000000000e+00 0.000000000000e+00
  0.000000000000e+00 0.000000000000e+00 0.000000000000e+00
  0.000000000000e+00 0.000000000000e+00 0.000000000000e+00
  0.000000000000e+00 0.000000000000e+00 0.000000000000e+00
  0.000000000000e+00 0.000000000000e+00 0.000000000000e+00
  0.000000000000e+00 0.000000000000e+00 0.000000000000e+00
  0.000000000000e+00 0.000000000000e+00 0.000000000000e+00
  0.000000000000e+00 0.000000000000e+00 0.000000000000e+00
  0.000000000000e+00 0.000000000000e+00 0.000000000000e+00
  0.000000000000e+00 0.000000000000e+00 0.000000000000e+00
  0.000000000000e+00 0.000000000000e+00 0.000000000000e+00
  0.000000000000e+00 0.000000000000e+00 0.000000000000e+00
  0.000000000000e+00 0.000000000000e+00 0.000000000000e+00
  0.000000000000e+00 0.000000000000e+00 0.000000000000e+00
  0.000000000000e+00 0.000000000000e+00 0.000000000000e+00
  0.000000000000e+00 0.000000000000e+00 0.000000000000e+00
  0.000000000000e+00 0.000000000000e+00 0.000000000000e+00
  0.000000000000e+00 0.000000000000e+00 0.000000000000e+00
  0.000000000000e+00 0.000000000000e+00 0.000000000000e+00
  0.000000000000e+00 0.000000000000e+00 0.000000000000e+00
  0.000000000000e+00 0.000000000000e+00 0.000000000000e+00
  0.000000000000e+00 0.000000000000e+00 0.000000000000e+00
  0.000000000000e+00 0.000000000000e+00 0.000000000000e+00
  0.000000000000e+00 0.000000000000e+00 0.000000000000e+00
  0.000000000000e+00 0.000000000000e+00 0.000000000000e+00
  0.000000000000e+00 0.000000000000e+00 0.000000000000e+00
  0.000000000000e+00 0.000000000000e+00 0.000000000000e+00
  0.000000000000e+00 0.000000000000e+00 0.000000000000e+00
  0.000000000000e+00 0.000000000000e+00 0.000000000000e+00
  0.000000000000e+00 0.000000000000e+00 0.000000000000e+00
  0.000000000000e+00 0.000000000000e+00 0.000000000000e+00
  0.000000000000e+00 0.000000000000e+00 0.000000000000e+00
  0.000000000000e+00 0.000000000000e+00 0.000000000000e+00
  0.000000000000e+00 0.000000000000e+00 0.000000000000e+00
  0.000000000000e+00 0.000000000000e+00 0.000000000000e+00
  0.000000000000e+00 0.000000000000e+00 0.000000000000e+00
  0.000000000000e+00 0.000000000000e+00 0.000000000000e+00
  0.000000000000e+00 0.000000000000e+00 0.000000000000e+00
  0.000000000000e+00 0.000000000000e+00 0.000000000000e+00
  0.000000000000e+00 0.000000000000e+00 0.000000000000e+00
  0.000000000000e+00 0.000000000000e+00 0.000000000000e+00
  0.000000000000e+00 0.000000000000e+00 0.000000000000e+00
  0.000000000000e+00 0.000000000000e+00 0.000000000000e+00
  0.000000000000e+00 0.000000000000e+00 0.000000000000e+00
  0.000000000000e+00 0.000000000000e+00 0.000000000000e+00
  0.000000000000e+00 0.000000000000e+00 0.000000000000e+00
  0.000000000000e+00 0.000000000000e+00 0.000000000000e+00
  0.000000000000e+00 0.000000000000e+00 0.000000000000e+00
  -8.136907869295e-04 8.136907869296e-04 0.000000000000e+00
  -8.497437658470e-04 2.470572006153e-03 0.000000000000e+00
  -9.355751507425e-04 4.232689948353e-03 0.000000000000e+00
  -1.101368243551e-03 6.230490162221e-03 0.000000000000e+00
  -1.398295838750e-03 8.699789717676e-03 0.000000000000e+00
  -1.902635713507e-03 1.205023137146e-02 0.000000000000e+00
  -2.715582200422e-03 1.694938612069e-02 0.000000000000e+00
  -3.953359108335e-03 2.440712124944e-02 0.000000000000e+00
  -5.722183143827e-03 3.582580178043e-02 0.000000000000e+00
  -8.075720271758e-03 5.296194679067e-02 0.000000000000e+00
  -1.096002088489e-02 7.773551864459e-02 0.000000000000e+00
  -1.416148350120e-02 1.118401528379e-01 0.000000000000e+00
  -1.728288163107e-02 1.561643449850e-01 0.000000000000e+00
  -1.977401909028e-02 2.101271733158e-01 0.000000000000e+00
  -2.103113378805e-02 2.711332639407e-01 0.000000000000e+00
  -2.055269267846e-02 3.344066124048e-01 0.000000000000e+00
  -1.810800443331e-02 3.934158890191e-01 0.000000000000e+00
  -1.385553334669e-02 4.409348212611e-01 0.000000000000e+00
  -8.354785684253e-03 4.705353026597e-01 0.000000000000e+00
  -2.451840908926e-03 4.780935235194e-01 0.000000000000e+00
  2.930274031576e-03 4.628175599448e-01 0.000000000000e+00
  7.024233241449e-03 4.274372275719e-01 0.000000000000e+00
  9.392687109055e-03 3.774897351209e-01 0.000000000000e+00
  9.989783145171e-03 3.199571358477e-01 0.000000000000e+00
  9.103880126989e-03 2.617172014474e-01 0.000000000000e+00
  7.220171118538e-03 2.082762685249e-01 0.000000000000e+00
  4.863244247056e-03 1.630822669830e-01 0.000000000000e+00
  2.472561122572e-03 1.274692085337e-01 0.000000000000e+00
  3.381408561282e-04 1.010767227720e-01 0.000000000000e+00
  -1.404692456158e-03 8.249115190672e-02 0.000000000000e+00
  -2.741335153643e-03 6.987286439094e-02 0.000000000000e+00
  -3.729416212647e-03 6.142325059277e-02 0.000000000000e+00
  -4.454895295929e-03 5.564673394291e-02 0.000000000000e+00
  -5.002139600186e-03 5.143721051574e-02 0.000000000000e+00
  -5.438935795654e-03 4.805112205149e-02 0.000000000000e+00
  -5.812668269669e-03 4.502863918219e-02 0.000000000000e+00
  -6.152722851583e-03 4.210646011966e-02 0.000000000000e+00
  -6.475134972600e-03 3.914486957579e-02 0.000000000000e+00
  -6.787130614743e-03 3.607589647170e-02 0.000000000000e+00
  -7.090602656941e-03 3.287062740578e-02 0.000000000000e+00
  -7.384415019422e-03 2.952054416703e-02 0.000000000000e+00
  -7.665791447449e-03 2.602777048146e-02 0.000000000000e+00
  -7.931111270901e-03 2.240037982341e-02 0.000000000000e+00
  -8.176369717013e-03 1.865030425950e-02 0.000000000000e+00
  -8.397468270053e-03 1.479244629495e-02 0.000000000000e+00
  -8.590425509770e-03 1.084427090531e-02 0.000000000000e+00
  -8.751550432590e-03 6.825533688187e-03 0.000000000000e+00
  -8.877593624866e-03 2.757994932444e-03 0.000000000000e+00
  -8.965878988513e-03 -1.334937257567e-03 0.000000000000e+00
  -9.014413708175e-03 -5.428647649590e-03 0.000000000000e+00
  -9.021972828153e-03 -9.497829838132e-03 0.000000000000e+00
  -8.988155033498e-03 -1.351705771697e-02 0.000000000000e+00
  -8.913406970935e-03 -1.746138675856e-02 0.000000000000e+00
  -8.799014217150e-03 -2.130695740001e-02 0.000000000000e+00
  -8.647057445062e-03 -2.503157599589e-02 0.000000000000e+00
  -8.460331814759e-03 -2.861526149079e-02 0.000000000000e+00
  -8.242224696941e-03 -3.204077875403e-02 0.000000000000e+00
  -7.996538649181e-03 -3.529425502879e-02 0.000000000000e+00
  -7.727228205969e-03 -3.836613775567e-02 0.000000000000e+00
  -7.437983869131e-03 -4.125307367525e-02 0.000000000000e+00
  -7.131539234969e-03 -4.396187288438e-02 0.000000000000e+00
  -6.808501412057e-03 -4.651766430737e-02 0.000000000000e+00
  -6.465439753684e-03 -4.897964043146e-02 0.000000000000e+00
  -6.091988034095e-03 -5.146911208144e-02 0.000000000000e+00
  -5.666952695382e-03 -5.421505076409e-02 0.000000000000e+00
  -5.154038815773e-03 -5.762020907048e-02 0.000000000000e+00
  -4.498901991980e-03 -6.234402561063e-02 0.000000000000e+00
  -3.630647986565e-03 -6.938505134758e-02 0.000000000000e+00
  -2.472002957526e-03 -8.012633947845e-02 0.000000000000e+00
  -9.620098158529e-04 -9.628798740853e-02 0.000000000000e+00
  9.080540532242e-04 -1.197240157852e-01 0.000000000000e+00
  3.051379989623e-03 -1.520218491784e-01 0.000000000000e+00
  5.249354425195e-03 -1.939228955009e-01 0.000000000000e+00
  7.143339551043e-03 -2.446762736044e-01 0.000000000000e+00
  8.274644006222e-03 -3.015331063615e-01 0.000000000000e+00
  8.180200558552e-03 -3.596333187214e-01 0.000000000000e+00
  6.528296859800e-03 -4.124799793028e-01 0.000000000000e+00
  3.253672943441e-03 -4.530241757409e-01 0.000000000000e+00
  -1.361872780898e-03 -4.751446085583e-01 0.000000000000e+00
  -6.707150084093e-03 -4.751032527636e-01 0.000000000000e+00
  -1.196733789175e-02 -4.525011454074e-01 0.000000000000e+00
  -1.632326325975e-02 -4.103982031334e-01 0.000000000000e+00
  -1.915660200413e-02 -3.545513248791e-01 0.000000000000e+00
  -2.018954632929e-02 -2.920375887439e-01 0.000000000000e+00
  -1.951538257391e-02 -2.297225971317e-01 0.000000000000e+00
  -1.752154843986e-02 -1.730310323950e-01 0.000000000000e+00
  -1.474633953042e-02 -1.253018340438e-01 0.000000000000e+00
  -1.172701915799e-02 -8.776552988344e-02 0.000000000000e+00
  -8.887338122427e-03 -5.998028680098e-02 0.000000000000e+00
  -6.486498991786e-03 -4.047408799034e-02 0.000000000000e+00
  -4.624683170425e-03 -2.736407823884e-02 0.000000000000e+00
  -3.283755340815e-03 -1.881409671194e-02 0.000000000000e+00
  -2.378719547602e-03 -1.329081226721e-02 0.000000000000e+00
  -1.802061743138e-03 -9.649156997970e-03 0.000000000000e+00
  -1.452903763874e-03 -7.107685431089e-03 0.000000000000e+00
  -1.250931624750e-03 -5.172808770450e-03 0.000000000000e+00
  -1.139318251919e-03 -3.553456263650e-03 0.000000000000e+00
  -1.081738195357e-03 -2.087943788673e-03 0.000000000000e+00
  -1.057534244101e-03 -6.897637660639e-04 0.000000000000e+00
  0.000000000000e+00 0.000000000000e+00 0.000000000000e+00
  0.000000000000e+00 0.000000000000e+00 0.000000000000e+00
  -2.470572006153e-03 8.497437658472e-04 0.000000000000e+00
  -2.592344158392e-03 2.592344158392e-03 0.000000000000e+00
  -2.879351355946e-03 4.483756378563e-03 0.000000000000e+00
  -3.425836066747e-03 6.691701535620e-03 0.000000000000e+00
  -4.388456039337e-03 9.498125912067e-03 0.000000000000e+00
  -5.995444781954e-03 1.336322379445e-02 0.000000000000e+00
  -8.541972131618e-03 1.899586753429e-02 0.000000000000e+00
  -1.235679464601e-02 2.741323925815e-02 0.000000000000e+00
  -1.772616213719e-02 3.995787529839e-02 0.000000000000e+00
  -2.477062593369e-02 5.822787419714e-02 0.000000000000e+00
  -3.329126202861e-02 8.387452794618e-02 0.000000000000e+00
  -4.263037838100e-02 1.182417225050e-01 0.000000000000e+00
  -5.161600309322e-02 1.618697981600e-01 0.000000000000e+00
  -5.866109511788e-02 2.139579496247e-01 0.000000000000e+00
  -6.205224189129e-02 2.719507491030e-01 0.000000000000e+00
  -6.038962025875e-02 3.314480645004e-01 0.000000000000e+00
  -5.305584072030e-02 3.865959691399e-01 0.000000000000e+00
  -4.053991851184e-02 4.309863478453e-01 0.000000000000e+00
  -2.446332069198e-02 4.589064305933e-01 0.000000000000e+00
  -7.254595888798e-03 4.666107260073e-01 0.000000000000e+00
  8.440936467090e-03 4.532227101605e-01 0.000000000000e+00
  2.041720286806e-02 4.209618517454e-01 0.000000000000e+00
  2.740288811753e-02 3.746109718304e-01 0.000000000000e+00
  2.924278823147e-02 3.203989029882e-01 0.000000000000e+00
  2.674409743188e-02 2.646600281247e-01 0.000000000000e+00
  2.129214177060e-02 2.126691065174e-01 0.000000000000e+00
  1.440250568709e-02 1.679359919455e-01 0.000000000000e+00
  7.360313474360e-03 1.320483589084e-01 0.000000000000e+00
  1.027594091824e-03 1.049647120463e-01 0.000000000000e+00
  -4.180308795380e-03 8.555389883192e-02 0.000000000000e+00
  -8.202861814659e-03 7.216931318260e-02 0.000000000000e+00
  -1.119676378364e-02 6.310878482930e-02 0.000000000000e+00
  -1.340828350642e-02 5.689819851286e-02 0.000000000000e+00
  -1.508418625874e-02 5.240889300321e-02 0.000000000000e+00
  -1.642556568760e-02 4.885761518999e-02 0.000000000000e+00
  -1.757464774297e-02 4.574496057604e-02 0.000000000000e+00
  -1.862056660715e-02 4.277611217698e-02 0.000000000000e+00
  -1.961243857789e-02 3.978950161856e-02 0.000000000000e+00
  -2.057261012011e-02 3.670343162634e-02 0.000000000000e+00
  -2.150702243823e-02 3.348097663091e-02 0.000000000000e+00
  -2.241220138161e-02 3.010918627539e-02 0.000000000000e+00
  -2.327953741668e-02 2.658784087350e-02 0.000000000000e+00
  -2.409777376145e-02 2.292386564747e-02 0.000000000000e+00
  -2.485446135040e-02 1.912876452876e-02 0.000000000000e+00
  -2.553687860909e-02 1.521750190439e-02 0.000000000000e+00
  -2.613269319931e-02 1.120798719820e-02 0.000000000000e+00
  -2.663049740424e-02 7.120746595991e-03 0.000000000000e+00
  -2.702026769914e-02 2.978595579323e-03 0.000000000000e+00
  -2.729376008067e-02 -1.193760103503e-03 0.000000000000e+00
  -2.744483710296e-02 -5.370213023409e-03 0.000000000000e+00
  -2.746971815303e-02 -9.523824277594e-03 0.000000000000e+00
  -2.736714464390e-02 -1.362745458813e-02 0.000000000000e+00
  -2.713845330592e-02 -1.765442931751e-02 0.000000000000e+00
  -2.678755215551e-02 -2.157920879429e-02 0.000000000000e+00
  -2.632079397166e-02 -2.537803962088e-02 0.000000000000e+00
  -2.574673932713e-02 -2.902957821208e-02 0.000000000000e+00
  -2.507579110414e-02 -3.251551744687e-02 0.000000000000e+00
  -2.431965633541e-02 -3.582133722221e-02 0.000000000000e+00
  -2.349053462455e-02 -3.893748777856e-02 0.000000000000e+00
  -2.259982625866e-02 -4.186167640743e-02 0.000000000000e+00
  -2.165598339110e-02 -4.460355769562e-02 0.000000000000e+00
  -2.066091065418e-02 -4.719409008749e-02 0.000000000000e+00
  -1.960415018086e-02 -4.970303680570e-02 0.000000000000e+00
  -1.845418744962e-02 -5.226913017354e-02 0.000000000000e+00
  -1.714697695376e-02 -5.514727851669e-02 0.000000000000e+00
  -1.557367097263e-02 -5.877420118491e-02 0.000000000000e+00
  -1.357276741153e-02 -6.384607388481e-02 0.000000000000e+00
  -1.093592069759e-02 -7.138810379485e-02 0.000000000000e+00
  -7.439570381484e-03 -8.277828237746e-02 0.000000000000e+00
  -2.912983884119e-03 -9.967262414914e-02 0.000000000000e+00
  2.656378784528e-03 -1.237788055826e-01 0.000000000000e+00
  8.998406582853e-03 -1.564524131159e-01 0.000000000000e+00
  1.545925743645e-02 -1.981511568527e-01 0.000000000000e+00
  2.098391335495e-02 -2.478666532970e-01 0.000000000000e+00
  2.423826562688e-02 -3.027283833960e-01 0.000000000000e+00
  2.388907662488e-02 -3.579944092372e-01 0.000000000000e+00
  1.899394939030e-02 -4.075718578536e-01 0.000000000000e+00
  9.383895313461e-03 -4.450476191969e-01 0.000000000000e+00
  -4.113419041268e-03 -4.650083050233e-01 0.000000000000e+00
  -1.973058719937e-02 -4.642771108373e-01 0.000000000000e+00
  -3.512172757312e-02 -4.426759591522e-01 0.000000000000e+00
  -4.792858562284e-02 -4.030606059708e-01 0.000000000000e+00
  -5.636154061418e-02 -3.506226283060e-01 0.000000000000e+00
  -5.959640431516e-02 -2.916984772909e-01 0.000000000000e+00
  -5.786586463750e-02 -2.324664120177e-01 0.000000000000e+00
  -5.224913599579e-02 -1.778977802847e-01 0.000000000000e+00
  -4.427275835205e-02 -1.311866727072e-01 0.000000000000e+00
  -3.548211418727e-02 -9.369065575717e-02 0.000000000000e+00
  -2.711796047778e-02 -6.525899567230e-02 0.000000000000e+00
  -1.996206540974e-02 -4.475211331771e-02 0.000000000000e+00
  -1.434201705117e-02 -3.056791709140e-02 0.000000000000e+00
  -1.023848688650e-02 -2.105471585367e-02 0.000000000000e+00
  -7.427776024483e-03 -1.476593978073e-02 0.000000000000e+00
  -5.608767136540e-03 -1.056969617686e-02 0.000000000000e+00
  -4.489621119171e-03 -7.655450248826e-03 0.000000000000e+00
  -3.832017698176e-03 -5.484619512832e-03 0.000000000000e+00
  -3.463394455776e-03 -3.721882136499e-03 0.000000000000e+00
  -3.271024108125e-03 -2.169468320036e-03 0.000000000000e+00
  -3.189553338272e-03 -7.139139558094e-04 0.000000000000e+00
  0.000000000000e+00 0.000000000000e+00 0.000000000000e+00
  0.000000000000e+00 0.000000000000e+00 0.000000000000e+00
  -4.232689948353e-03 9.355751507426e-04 0.000000000000e+00
  -4.483756378563e-03 2.879351355946e-03 0.000000000000e+00
  -5.065079939196e-03 5.065079939196e-03 0.000000000000e+00
  -6.144141133009e-03 7.735923879599e-03 0.000000000000e+00
  -7.989468962933e-03 1.126185137060e-02 0.000000000000e+00
  -1.097560608597e-02 1.619262420157e-02 0.000000000000e+00
  -1.556287942899e-02 2.330026781984e-02 0.000000000000e+00
  -2.223141529748e-02 3.359219735548e-02 0.000000000000e+00
  -3.135319347338e-02 4.827006286813e-02 0.000000000000e+00
  -4.300275721143e-02 6.860971416195e-02 0.000000000000e+00
  -5.673789178950e-02 9.574845865436e-02 0.000000000000e+00
  -7.141943583218e-02 1.303884521919e-01 0.000000000000e+00
  -8.516732320493e-02 1.724565805580e-01 0.000000000000e+00
  -9.554467518683e-02 2.207936112332e-01 0.000000000000e+00
  -1.000059621499e-01 2.729675212310e-01 0.000000000000e+00
  -9.654358643964e-02 3.253062950296e-01 0.000000000000e+00
  -8.435538146025e-02 3.732157540928e-01 0.000000000000e+00
  -6.429098920978e-02 4.117862484334e-01 0.000000000000e+00
  -3.886802043021e-02 4.366069634057e-01 0.000000000000e+00
  -1.178714712974e-02 4.446205950912e-01 0.000000000000e+00
  1.293191223034e-02 4.347982493606e-01 0.000000000000e+00
  3.191390574234e-02 4.084280526323e-01 0.000000000000e+00
  4.316899556278e-02 3.689039958735e-01 0.000000000000e+00
  4.638438393086e-02 3.210505904630e-01 0.000000000000e+00
  4.272385182715e-02 2.701675635531e-01 0.000000000000e+00
  3.427399271154e-02 2.210633858658e-01 0.000000000000e+00
  2.337476684019e-02 1.773305745520e-01 0.000000000000e+00
  1.205977250681e-02 1.410109628481e-01 0.000000000000e+00
  1.737453946306e-03 1.126571460497e-01 0.000000000000e+00
  -6.872042006254e-03 9.167886366851e-02 0.000000000000e+00
  -1.361527684621e-02 7.681013620588e-02 0.000000000000e+00
  -1.870151019413e-02 6.654809712432e-02 0.000000000000e+00
  -2.250330532150e-02 5.947220107087e-02 0.000000000000e+00
  -2.541077426689e-02 5.441826214858e-02 0.000000000000e+00
  -2.775108393136e-02 5.052993514860e-02 0.000000000000e+00
  -2.976102545302e-02 4.723166421347e-02 0.000000000000e+00
  -3.159201264751e-02 4.416631463063e-02 0.000000000000e+00
  -3.332900170098e-02 4.112816024182e-02 0.000000000000e+00
  -3.501129853659e-02 3.800724146259e-02 0.000000000000e+00
  -3.664958637283e-02 3.474986706972e-02 0.000000000000e+00
  -3.823781264718e-02 3.133370122432e-02 0.000000000000e+00
  -3.976069172137e-02 2.775354126177e-02 0.000000000000e+00
  -4.119818483144e-02 2.401389500461e-02 0.000000000000e+00
  -4.252816920915e-02 2.012540748974e-02 0.000000000000e+00
  -4.372812813479e-02 1.610323552976e-02 0.000000000000e+00
  -4.477634258805e-02 1.196628304903e-02 0.000000000000e+00
  -4.565282348579e-02 7.736736282494e-03 0.000000000000e+00
  -4.634008489127e-02 3.439637994761e-03 0.000000000000e+00
  -4.682379053248e-02 -8.976041645990e-04 0.000000000000e+00
  -4.709327780117e-02 -5.245804442991e-03 0.000000000000e+00
  -4.714195427526e-02 -9.574675233046e-03 0.000000000000e+00
  -4.696755998106e-02 -1.385357147380e-02 0.000000000000e+00
  -4.657228842776e-02 -1.805227549535e-02 0.000000000000e+00
  -4.596275843745e-02 -2.214179404527e-02 0.000000000000e+00
  -4.514982532751e-02 -2.609514603786e-02 0.000000000000e+00
  -4.414821100553e-02 -2.988814118589e-02 0.000000000000e+00
  -4.297591081034e-02 -3.350020332907e-02 0.000000000000e+00
  -4.165328609759e-02 -3.691541124075e-02 0.000000000000e+00
  -4.020165218780e-02 -4.012416975722e-02 0.000000000000e+00
  -3.864099275083e-02 -4.312636255078e-02 0.000000000000e+00
  -3.698615855633e-02 -4.593754887064e-02 0.000000000000e+00
  -3.524058261681e-02 -4.860074778444e-02 0.000000000000e+00
  -3.338633857408e-02 -5.120738376672e-02 0.000000000000e+00
  -3.136967224405e-02 -5.393141237190e-02 0.000000000000e+00
  -2.908256460218e-02 -5.707931452073e-02 0.000000000000e+00
  -2.634409908742e-02 -6.115393671740e-02 0.000000000000e+00
  -2.289058806686e-02 -6.692075295832e-02 0.000000000000e+00
  -1.838942050759e-02 -7.545143900846e-02 0.000000000000e+00
  -1.249518620259e-02 -8.810553179254e-02 0.000000000000e+00
  -4.962621417604e-03 -1.064045260204e-01 0.000000000000e+00
  4.185787995217e-03 -1.317646757948e-01 0.000000000000e+00
  1.446996268630e-02 -1.650927453940e-01 0.000000000000e+00
  2.480834249389e-02 -2.063100552362e-01 0.000000000000e+00
  3.351121877109e-02 -2.539352871094e-01 0.000000000000e+00
  3.849024578415e-02 -3.048931288686e-01 0.000000000000e+00
  3.770181478789e-02 -3.546920437663e-01 0.000000000000e+00
  2.974218318670e-02 -3.980194644887e-01 0.000000000000e+00
  1.441366285049e-02 -4.296614381487e-01 0.000000000000e+00
  -6.961093299832e-03 -4.455224155664e-01 0.000000000000e+00
  -3.164568908181e-02 -4.434612363541e-01 0.000000000000e+00
  -5.604180671129e-02 -4.237045756322e-01 0.000000000000e+00
  -7.653371082639e-02 -3.887332273260e-01 0.000000000000e+00
  -9.034858848102e-02 -3.427021743048e-01 0.000000000000e+00
  -9.614781982382e-02 -2.905848362483e-01 0.000000000000e+00
  -9.417676816112e-02 -2.372816444007e-01 0.000000000000e+00
  -8.597605780837e-02 -1.868999868962e-01 0.000000000000e+00
  -7.381076198630e-02 -1.423261395616e-01 0.000000000000e+00
  -6.004163769497e-02 -1.051109573590e-01 0.000000000000e+00
  -4.663187262059e-02 -7.561261285437e-02 0.000000000000e+00
  -3.488887682833e-02 -5.329738699594e-02 0.000000000000e+00
  -2.543792075221e-02 -3.709364784787e-02 0.000000000000e+00
  -1.835540147257e-02 -2.571503454151e-02 0.000000000000e+00
  -1.336878879846e-02 -1.790294462902e-02 0.000000000000e+00
  -1.004759604051e-02 -1.257289297447e-02 0.000000000000e+00
  -7.943777138103e-03 -8.875218371004e-03 0.000000000000e+00
  -6.671977366496e-03 -6.194254583256e-03 0.000000000000e+00
  -5.940362994971e-03 -4.112484680001e-03 0.000000000000e+00
  -5.550401436534e-03 -2.361197682621e-03 0.000000000000e+00
  -5.382920705821e-03 -7.711360937901e-04 0.000000000000e+00
  0.000000000000e+00 0.000000000000e+00 0.000000000000e+00
  0.000000000000e+00 0.000000000000e+00 0.000000000000e+00
  -6.230490162221e-03 1.101368243551e-03 0.000000000000e+00
  -6.691701535620e-03 3.425836066747e-03 0.000000000000e+00
  -7.735923879599e-03 6.144141133009e-03 0.000000000000e+00
  -9.612650448448e-03 9.612650448449e-03 0.000000000000e+00
  -1.270299840884e-02 1.432080059207e-02 0.000000000000e+00
  -1.750648755604e-02 2.092330125035e-02 0.000000000000e+00
  -2.459035673473e-02 3.024073329277e-02 0.000000000000e+00
  -3.448154550540e-02 4.321145652172e-02 0.000000000000e+00
  -4.749178153111e-02 6.078281790351e-02 0.000000000000e+00
  -6.348935480112e-02 8.374409613465e-02 0.000000000000e+00
  -8.166520058373e-02 1.125250570423e-01 0.000000000000e+00
  -1.003759514997e-01 1.470041487626e-01 0.000000000000e+00
  -1.171648045129e-01 1.863776243733e-01 0.000000000000e+00
  -1.290422033425e-01 2.291273182294e-01 0.000000000000e+00
  -1.330411771515e-01 2.730940750067e-01 0.000000000000e+00
  -1.269567285551e-01 3.156329169472e-01 0.000000000000e+00
  -1.100715378930e-01 3.538157365337e-01 0.000000000000e+00
  -8.361484102918e-02 3.846651768783e-01 0.000000000000e+00
  -5.074232555125e-02 4.054325507033e-01 0.000000000000e+00
  -1.596827353140e-02 4.139400824733e-01 0.000000000000e+00