# vtk DataFile Version 3.0
Karman Output
ASCII
DATASET RECTILINEAR_GRID
DIMENSIONS 101 101 1
X_COORDINATES 101 float
   0.000000000000e+00   9.900990099010e-03   1.980198019802e-02   2.970297029703e-02   3.960396039604e-02   4.950495049505e-02   5.940594059406e-02   6.930693069307e-02   7.920792079208e-02   8.910891089109e-02   9.900990099010e-02   1.089108910891e-01   1.188118811881e-01   1.287128712871e-01   1.386138613861e-01   1.485148514851e-01   1.584158415842e-01   1.683168316832e-01   1.782178217822e-01   1.881188118812e-01   1.980198019802e-01   2.079207920792e-01   2.178217821782e-01   2.277227722772e-01   2.376237623762e-01   2.475247524752e-01   2.574257425743e-01   2.673267326733e-01   2.772277227723e-01   2.871287128713e-01   2.970297029703e-01   3.069306930693e-01   3.168316831683e-01   3.267326732673e-01   3.366336633663e-01   3.465346534653e-01   3.564356435644e-01   3.663366336634e-01   3.762376237624e-01   3.861386138614e-01   3.960396039604e-01   4.059405940594e-01   4.158415841584e-01   4.257425742574e-01   4.356435643564e-01   4.455445544554e-01   4.554455445545e-01   4.653465346535e-01   4.752475247525e-01   4.851485148515e-01   4.950495049505e-01   5.049504950495e-01   5.148514851485e-01   5.247524752475e-01   5.346534653465e-01   5.445544554455e-01   5.544554455446e-01   5.643564356436e-01   5.742574257426e-01   5.841584158416e-01   5.940594059406e-01   6.039603960396e-01   6.138613861386e-01   6.237623762376e-01   6.336633663366e-01   6.435643564356e-01   6.534653465347e-01   6.633663366337e-01   6.732673267327e-01   6.831683168317e-01   6.930693069307e-01   7.029702970297e-01   7.128712871287e-01   7.227722772277e-01   7.326732673267e-01   7.425742574257e-01   7.524752475248e-01   7.623762376238e-01   7.722772277228e-01   7.821782178218e-01   7.920792079208e-01   8.019801980198e-01   8.118811881188e-01   8.217821782178e-01   8.316831683168e-01   8.415841584158e-01   8.514851485149e-01   8.613861386139e-01   8.712871287129e-01   8.811881188119e-01   8.910891089109e-01   9.009900990099e-01   9.108910891089e-01   9.207920792079e-01   9.306930693069e-01   9.405940594059e-01   9.504950495050e-01   9.603960396040e-01   9.702970297030e-01   9.801980198020e-01   9.900990099010e-01
Y_COORDINATES 101 float
   0.000000000000e+00   9.900990099010e-03   1.980198019802e-02   2.970297029703e-02   3.960396039604e-02   4.950495049505e-02   5.940594059406e-02   6.930693069307e-02   7.920792079208e-02   8.910891089109e-02   9.900990099010e-02   1.089108910891e-01   1.188118811881e-01   1.287128712871e-01   1.386138613861e-01   1.485148514851e-01   1.584158415842e-01   1.683168316832e-01   1.782178217822e-01   1.881188118812e-01   1.980198019802e-01   2.079207920792e-01   2.178217821782e-01   2.277227722772e-01   2.376237623762e-01   2.475247524752e-01   2.574257425743e-01   2.673267326733e-01   2.772277227723e-01   2.871287128713e-01   2.970297029703e-01   3.069306930693e-01   3.168316831683e-01   3.267326732673e-01   3.366336633663e-01   3.465346534653e-01   3.564356435644e-01   3.663366336634e-01   3.762376237624e-01   3.861386138614e-01   3.960396039604e-01   4.059405940594e-01   4.158415841584e-01   4.257425742574e-01   4.356435643564e-01   4.455445544554e-01   4.554455445545e-01   4.653465346535e-01   4.752475247525e-01   4.851485148515e-01   4.950495049505e-01   5.049504950495e-01   5.148514851485e-01   5.247524752475e-01   5.346534653465e-01   5.445544554455e-01   5.544554455446e-01   5.643564356436e-01   5.742574257426e-01   5.841584158416e-01   5.940594059406e-01   6.039603960396e-01   6.138613861386e-01   6.237623762376e-01   6.336633663366e-01   6.435643564356e-01   6.534653465347e-01   6.633663366337e-01   6.732673267327e-01   6.831683168317e-01   6.930693069307e-01   7.029702970297e-01   7.128712871287e-01   7.227722772277e-01   7.326732673267e-01   7.425742574257e-01   7.524752475248e-01   7.623762376238e-01   7.722772277228e-01   7.821782178218e-01   7.920792079208e-01   8.019801980198e-01   8.118811881188e-01   8.217821782178e-01   8.316831683168e-01   8.415841584158e-01   8.514851485149e-01   8.613861386139e-01   8.712871287129e-01   8.811881188119e-01   8.910891089109e-01   9.009900990099e-01   9.108910891089e-01   9.207920792079e-01   9.306930693069e-01   9.405940594059e-01   9.504950495050e-01   9.603960396040e-01   9.702970297030e-01   9.801980198020e-01   9.900990099010e-01
Z_COORDINATES 1 float
  0.000000000000e+00
POINT_DATA 10201
VECTORS E_field float
  0.000000000000e+00 0.000000000000e+00 0.000000000000e+00
  0.000000000000e+00 0.000000000000e+00 0.000000000000e+00
  0.000000000000e+00 0.000000000000e+00 0.000000000000e+00
  0.000000000000e+00 0.000000000000e+00 0.000000000000e+00
  0.000000000000e+00 0.000000000000e+00 0.000000000000e+00
  0.000000000000e+00 0.000000000000e+00 0.000000000000e+00
  0.000000000000e+00 0.000000000000e+00 0.000000000000e+00
  0.000000000000e+00 0.000000000000e+00 0.000000000000e+00
  0.000000000000e+00 0.000000000000e+00 0.000000000000e+00
  0.000000000000e+00 0.000000000000e+00 0.000000000000e+00
  0.000000000000e+00 0.000000000000e+00 0.000000000000e+00
  0.000000000000e+00 0.000000000000e+00 0.000000000000e+00
  0.000000000000e+00 0.000000000000e+00 0.000000000000e+00
  0.000000000000e+00 0.000000000000e+00 0.000000000000e+00
  0.000000000000e+00 0.000000000000e+00 0.000000000000e+00
  0.000000000000e+00 0.000000000000e+00 0.000000000000e+00
  0.000000000000e+00 0.000000000000e+00 0.000000000000e+00
  0.000000000000e+00 0.000000000000e+00 0.000000000000e+00
  0.000000000000e+00 0.000000000000e+00 0.000000000000e+00
  0.000000000000e+00 0.000000000000e+00 0.000000000000e+00
  0.000000000000e+00 0.000000000000e+00 0.000000000000e+00
  0.000000000000e+00 0.000000000000e+00 0.000000000000e+00
  0.000000000000e+00 0.000000000000e+00 0.000000000000e+00
  0.000000000000e+00 0.000000000000e+00 0.000000000000e+00
  0.000000000000e+00 0.000000000000e+00 0.000000000000e+00
  0.000000000000e+00 0.000000000000e+00 0.000000000000e+00
  0.000000000000e+00 0.000000000000e+00 0.000000000000e+00
  0.000000000000e+00 0.000000000000e+00 0.000000000000e+00
  0.000000000000e+00 0.000000000000e+00 0.000000000000e+00
  0.000000000000e+00 0.000000000000e+00 0.000000000000e+00
  0.000000000000e+00 0.000000000000e+00 0.000000000000e+00
  0.000000000000e+00 0.000000000000e+00 0.000000000000e+00
  0.000000000000e+00 0.000000000000e+00 0.000000000000e+00
  0.000000000000e+00 0.000000000000e+00 0.000000000000e+00
  0.000000000000e+00 0.000000000000e+00 0.000000000000e+00
  0.000000000000e+00 0.000000000000e+00 0.000000000000e+00
  0.000000000000e+00 0.000000000000e+00 0.000000000000e+00
  0.000000000000e+00 0.000000000000e+00 0.000000000000e+00
  0.000000000000e+00 0.000000000000e+00 0.000000000000e+00
  0.000000000000e+00 0.000000000000e+00 0.000000000000e+00
  0.000000000000e+00 0.000000000000e+00 0.000000000000e+00
  0.000000000000e+00 0.000000000000e+00 0.000000000000e+00
  0.000000000000e+00 0.000000000000e+00 0.000000000000e+00
  0.000000000000e+00 0.000000000000e+00 0.000000000000e+00
  0.000000000000e+00 0.000000000000e+00 0.000000000000e+00
  0.000000000000e+00 0.000000000000e+00 0.000000000000e+00
  0.000000000000e+00 0.000000000000e+00 0.000000000000e+00
  0.000000000000e+00 0.000000000000e+00 0.000000000000e+00
  0.000000000000e+00 0.000000000000e+00 0.000000000000e+00
  0.000000000000e+00 0.000000000000e+00 0.000000000000e+00
  0.000000000000e+00 0.000000000000e+00 0.000000000000e+00
  0.000000000000e+00 0.000000000000e+00 0.000000000000e+00
  0.000000000000e+00 0.000000000000e+00 0.000000000000e+00
  0.000000000000e+00 0.000000000000e+00 0.000000000000e+00
  0.000000000000e+00 0.000000000000e+00 0.000000000000e+00
  0.000000000000e+00 0.000000000000e+00 0.000000000000e+00
  0.000000000000e+00 0.000000000000e+00 0.000000000000e+00
  0.000000000000e+00 0.000000000000e+00 0.000000000000e+00
  0.000000000000e+00 0.000000000000e+00 0.000000000000e+00
  0.000000000000e+00 0.000000000000e+00 0.000000000000e+00
  0.000000000000e+00 0.000000000000e+00 0.000000000000e+00
  0.000000000000e+00 0.000000000000e+00 0.000000000000e+00
  0.000000000000e+00 0.000000000000e+00 0.000000000000e+00
  0.000000000000e+00 0.000000000000e+00 0.000000000000e+00
  0.000000000000e+00 0.000000000000e+00 0.000000000000e+00
  0.000000000000e+00 0.000000000000e+00 0.000000000000e+00
  0.000000000000e+00 0.000000000000e+00 0.000000000000e+00
  0.000000000000e+00 0.000000000000e+00 0.000000000000e+00
  0.000000000000e+00 0.000000000000e+00 0.000000000000e+00
  0.000000000000e+00 0.000000000000e+00 0.000000000000e+00
  0.000000000000e+00 0.000000000000e+00 0.000000000000e+00
  0.000000000000e+00 0.000000000000e+00 0.000000000000e+00
  0.000000000000e+00 0.000000000000e+00 0.000000000000e+00
  0.000000000000e+00 0.000000000000e+00 0.000000000000e+00
  0.000000000000e+00 0.000000000000e+00 0.000000000000e+00
  0.000000000000e+00 0.000000000000e+00 0.000000000000e+00
  0.000000000000e+00 0.000000000000e+00 0.000000000000e+00
  0.000000000000e+00 0.000000000000e+00 0.000000000000e+00
  0.000000000000e+00 0.000000000000e+00 0.000000000000e+00
  0.000000000000e+00 0.000000000000e+00 0.000000000000e+00
  0.000000000000e+00 0.000000000000e+00 0.000000000000e+00
  0.000000000000e+00 0.000000000000e+00 0.000000000000e+00
  0.000000000000e+00 0.000000000000e+00 0.000000000000e+00
  0.000000000000e+00 0.000000000000e+00 0.000000000000e+00
  0.000000000000e+00 0.000000000000e+00 0.000000000000e+00
  0.000000000000e+00 0.000000000000e+00 0.000000000000e+00
  0.000000000000e+00 0.000000000000e+00 0.000000000000e+00
  0.000000000000e+00 0.000000000000e+00 0.000000000000e+00
  0.000000000000e+00 0.000000000000e+00 0.000000000000e+00
  0.000000000000e+00 0.000000000000e+00 0.000000000000e+00
  0.000000000000e+00 0.000000000000e+00 0.000000000000e+00
  0.000000000000e+00 0.000000000000e+00 0.000000000000e+00
  0.000000000000e+00 0.000000000000e+00 0.000000000000e+00
  0.000000000000e+00 0.000000000000e+00 0.000000000000e+00
  0.000000000000e+00 0.000000000000e+00 0.000000000000e+00
  0.000000000000e+00 0.000000000000e+00 0.000000000000e+00
  0.000000000000e+00 0.000000000000e+00 0.000000000000e+00
  0.000000000000e+00 0.000000000000e+00 0.000000000000e+00
  0.000000000000e+00 0.000000000000e+00 0.000000000000e+00
  0.000000000000e+00 0.000000000000e+00 0.000000000000e+00
  0.000000000000e+00 0.000000000000e+00 0.000000000000e+00
  0.000000000000e+00 0.000000000000e+00 0.000000000000e+00
  -2.207537277506e-03 2.207537277507e-03 0.000000000000e+00
  -2.210815241586e-03 6.637316231398e-03 0.000000000000e+00
  -2.217594689857e-03 1.111364716310e-02 0.000000000000e+00
  -2.228143014554e-03 1.567479714087e-02 0.000000000000e+00
  -2.242503384148e-03 2.036374096086e-02 0.000000000000e+00
  -2.260590750814e-03 2.521846561571e-02 0.000000000000e+00
  -2.283030537391e-03 3.026946634886e-02 0.000000000000e+00
  -2.311973059882e-03 3.556728725819e-02 0.000000000000e+00
  -2.350064932722e-03 4.122749966673e-02 0.000000000000e+00
  -2.397091926230e-03 4.742488664655e-02 0.000000000000e+00
  -2.447673402037e-03 5.427949091698e-02 0.000000000000e+00
  -2.495924686378e-03 6.170755573846e-02 0.000000000000e+00
  -2.549431295552e-03 6.947146892491e-02 0.000000000000e+00
  -2.645427232711e-03 7.765666632455e-02 0.000000000000e+00
  -2.854111315454e-03 8.751574307027e-02 0.000000000000e+00
  -3.256585193324e-03 1.021946206426e-01 0.000000000000e+00
  -3.899681072105e-03 1.266419087932e-01 0.000000000000e+00
  -4.747887556594e-03 1.662735189359e-01 0.000000000000e+00
  -5.660089383981e-03 2.246469740301e-01 0.000000000000e+00
  -6.408908985421e-03 3.010773767510e-01 0.000000000000e+00
  -6.738737295509e-03 3.893365301805e-01 0.000000000000e+00
  -6.439151326847e-03 4.781551350596e-01 0.000000000000e+00
  -5.405121571747e-03 5.534467777264e-01 0.000000000000e+00
  -3.665471598259e-03 6.014632750516e-01 0.000000000000e+00
  -1.377551404705e-03 6.118349942421e-01 0.000000000000e+00
  1.202384171829e-03 5.796848144789e-01 0.000000000000e+00
  3.762485305777e-03 5.064814389325e-01 0.000000000000e+00
  5.987407172418e-03 3.997001623876e-01 0.000000000000e+00
  7.618091545047e-03 2.715235635058e-01 0.000000000000e+00
  8.513602574834e-03 1.368033447710e-01 0.000000000000e+00
  8.698212354825e-03 1.050426310221e-02 0.000000000000e+00
  8.368576972349e-03 -9.500941248805e-02 0.000000000000e+00
  7.841175425777e-03 -1.722578974045e-01 0.000000000000e+00
  7.442614007203e-03 -2.198075645842e-01 0.000000000000e+00
  7.375857744787e-03 -2.418329991968e-01 0.000000000000e+00
  7.615909547898e-03 -2.461476048187e-01 0.000000000000e+00
  7.883293376286e-03 -2.414027929626e-01 0.000000000000e+00
  7.711718642615e-03 -2.345102251613e-01 0.000000000000e+00
  6.583980619840e-03 -2.291841480295e-01 0.000000000000e+00
  4.081874485199e-03 -2.259101180367e-01 0.000000000000e+00
  -2.766049267404e-06 -2.229769199285e-01 0.000000000000e+00
  -5.622058284750e-03 -2.178452721361e-01 0.000000000000e+00
  -1.248508426329e-02 -2.082188771769e-01 0.000000000000e+00
  -2.010628645317e-02 -1.925673993726e-01 0.000000000000e+00
  -2.786807645355e-02 -1.702161563843e-01 0.000000000000e+00
  -3.508913153923e-02 -1.412535531366e-01 0.000000000000e+00
  -4.109846972972e-02 -1.064264933107e-01 0.000000000000e+00
  -4.531381546107e-02 -6.705165322378e-02 0.000000000000e+00
  -4.731555331046e-02 -2.489895826737e-02 0.000000000000e+00
  -4.690296531610e-02 1.798029861779e-02 0.000000000000e+00
  -4.412130061380e-02 5.946611281559e-02 0.000000000000e+00
  -3.925439940204e-02 9.759037827676e-02 0.000000000000e+00
  -3.278434470966e-02 1.307361212411e-01 0.000000000000e+00
  -2.532550049998e-02 1.577891036165e-01 0.000000000000e+00
  -1.754535147577e-02 1.782206115682e-01 0.000000000000e+00
  -1.008717656811e-02 1.921083679242e-01 0.000000000000e+00
  -3.506535158890e-03 2.001451661524e-01 0.000000000000e+00
  1.775531604181e-03 2.036834413272e-01 0.000000000000e+00
  5.508660256215e-03 2.047665169046e-01 0.000000000000e+00
  7.644496638448e-03 2.059478715885e-01 0.000000000000e+00
  8.356688293000e-03 2.096514327990e-01 0.000000000000e+00
  8.028165076220e-03 2.170195184619e-01 0.000000000000e+00
  7.183215661156e-03 2.265930527357e-01 0.000000000000e+00
  6.363066408979e-03 2.335151861400e-01 0.000000000000e+00
  5.977632512006e-03 2.299379201551e-01 0.000000000000e+00
  6.189767715474e-03 2.068418634734e-01 0.000000000000e+00
  6.882394811653e-03 1.567796599710e-01 0.000000000000e+00
  7.723483201783e-03 7.654222768271e-02 0.000000000000e+00
  8.299278068896e-03 -3.126232208088e-02 0.000000000000e+00
  8.258525156440e-03 -1.582428042953e-01 0.000000000000e+00
  7.413653660303e-03 -2.917281822507e-01 0.000000000000e+00
  5.773083317731e-03 -4.171205718002e-01 0.000000000000e+00
  3.512607068859e-03 -5.203962815152e-01 0.000000000000e+00
  9.142891392626e-04 -5.902836623838e-01 0.000000000000e+00
  -1.698619100246e-03 -6.199334394128e-01 0.000000000000e+00
  -4.016104756571e-03 -6.080147316603e-01 0.000000000000e+00
  -5.784967244816e-03 -5.590848337955e-01 0.000000000000e+00
  -6.845968753016e-03 -4.829629733625e-01 0.000000000000e+00
  -7.162722667791e-03 -3.929194016402e-01 0.000000000000e+00
  -6.831256073663e-03 -3.028679260668e-01 0.000000000000e+00
  -6.057520584271e-03 -2.242698539847e-01 0.000000000000e+00
  -5.100928965718e-03 -1.637838768034e-01 0.000000000000e+00
  -4.200080265324e-03 -1.225347673268e-01 0.000000000000e+00
  -3.509803011088e-03 -9.721077272451e-02 0.000000000000e+00
  -3.075796615382e-03 -8.237070770227e-02 0.000000000000e+00
  -2.854225091210e-03 -7.283762605425e-02 0.000000000000e+00
  -2.760184927367e-03 -6.518199879388e-02 0.000000000000e+00
  -2.716402243794e-03 -5.794288994145e-02 0.000000000000e+00
  -2.679334852095e-03 -5.095115150553e-02 0.000000000000e+00
  -2.638084352542e-03 -4.445481291878e-02 0.000000000000e+00
  -2.598038888047e-03 -3.857997593758e-02 0.000000000000e+00
  -2.565377750585e-03 -3.323624328004e-02 0.000000000000e+00
  -2.541042591425e-03 -2.825610557395e-02 0.000000000000e+00
  -2.522584983241e-03 -2.352059209340e-02 0.000000000000e+00
  -2.507757099263e-03 -1.897696264005e-02 0.000000000000e+00
  -2.495871014766e-03 -1.459633920338e-02 0.000000000000e+00
  -2.487075796282e-03 -1.034307491283e-02 0.000000000000e+00
  -2.481427947546e-03 -6.174969582739e-03 0.000000000000e+00
  -2.478712070459e-03 -2.053452436264e-03 0.000000000000e+00
  0.000000000000e+00 0.000000000000e+00 0.000000000000e+00
  0.000000000000e+00 0.000000000000e+00 0.000000000000e+00
  -6.637316231398e-03 2.210815241586e-03 0.000000000000e+00
  -6.647405928557e-03 6.647405928556e-03 0.000000000000e+00
  -6.668225552071e-03 1.113115653773e-02 0.000000000000e+00
  -6.700523434912e-03 1.570013397378e-02 0.000000000000e+00
  -6.744389252100e-03 2.039663031473e-02 0.000000000000e+00
  -6.799574996156e-03 2.525884937256e-02 0.000000000000e+00
  -6.867946856110e-03 3.031989423854e-02 0.000000000000e+00
  -6.955769633633e-03 3.563362466852e-02 0.000000000000e+00
  -7.070574515769e-03 4.131405901138e-02 0.000000000000e+00
  -7.211399376519e-03 4.752617915617e-02 0.000000000000e+00
  -7.362468240226e-03 5.437984874688e-02 0.000000000000e+00
  -7.507526888223e-03 6.180050784090e-02 0.000000000000e+00
  -7.671254590816e-03 6.959575113424e-02 0.000000000000e+00
  -7.966392465407e-03 7.792351792697e-02 0.000000000000e+00
  -8.602215918663e-03 8.809339900385e-02 0.000000000000e+00
  -9.817997975258e-03 1.032352206435e-01 0.000000000000e+00
  -1.174887918657e-02 1.281752858824e-01 0.000000000000e+00
  -1.428419162934e-02 1.681236607739e-01 0.000000000000e+00
  -1.699992271048e-02 2.264247651006e-01 0.000000000000e+00
  -1.921733672139e-02 3.022658192929e-01 0.000000000000e+00
  -2.017568595749e-02 3.894362651848e-01 0.000000000000e+00
  -1.924991970003e-02 4.768300478292e-01 0.000000000000e+00
  -1.612891506114e-02 5.506168305628e-01 0.000000000000e+00
  -1.089958727325e-02 5.973242444538e-01 0.000000000000e+00
  -4.030990572585e-03 6.068175079457e-01 0.000000000000e+00
  3.713393855493e-03 5.743779807707e-01 0.000000000000e+00
  1.140360675814e-02 5.015379586042e-01 0.000000000000e+00
  1.809663987418e-02 3.957256877333e-01 0.000000000000e+00
  2.301196653170e-02 2.689520271299e-01 0.000000000000e+00
  2.571295921643e-02 1.357783774323e-01 0.000000000000e+00
  2.624564742842e-02 1.081193244896e-02 0.000000000000e+00
  2.516199531934e-02 -9.390379434304e-02 0.000000000000e+00
  2.337023041525e-02 -1.710443490984e-01 0.000000000000e+00
  2.181961783957e-02 -2.190719388951e-01 0.000000000000e+00
  2.111513073217e-02 -2.417973815144e-01 0.000000000000e+00
  2.121651593864e-02 -2.465246595077e-01 0.000000000000e+00
  2.136116291219e-02 -2.414377690704e-01 0.000000000000e+00
  2.025762156113e-02 -2.332001329604e-01 0.000000000000e+00
  1.647428137896e-02 -2.255831620125e-01 0.000000000000e+00
  8.866148185082e-03 -2.194008647058e-01 0.000000000000e+00
  -3.113116619587e-03 -2.134222678927e-01 0.000000000000e+00
  -1.928874325411e-02 -2.056050052646e-01 0.000000000000e+00
  -3.881284141009e-02 -1.940720198659e-01 0.000000000000e+00
  -6.031165948460e-02 -1.775942363610e-01 0.000000000000e+00
  -8.206776400311e-02 -1.556714248102e-01 0.000000000000e+00
  -1.022103398921e-01 -1.284346536637e-01 0.000000000000e+00
  -1.189140234213e-01 -9.653237099095e-02 0.000000000000e+00
  -1.306048500930e-01 -6.103960307297e-02 0.000000000000e+00
  -1.361529660699e-01 -2.336115453616e-02 0.000000000000e+00
  -1.350187395497e-01 1.489568041031e-02 0.000000000000e+00
  -1.273229800191e-01 5.207330680682e-02 0.000000000000e+00
  -1.138276708123e-01 8.662097386018e-02 0.000000000000e+00
  -9.583089138826e-02 1.172386915117e-01 0.000000000000e+00
  -7.499467534660e-02 1.429914730455e-01 0.000000000000e+00
  -5.313766791939e-02 1.633810856244e-01 0.000000000000e+00
  -3.203120228204e-02 1.783832532516e-01 0.000000000000e+00
  -1.322893925820e-02 1.884873763187e-01 0.000000000000e+00
  2.064225139512e-03 1.947659999304e-01 0.000000000000e+00
  1.310140667241e-02 1.989136480542e-01 0.000000000000e+00
  1.969509949592e-02 2.030712111807e-01 0.000000000000e+00
  2.228768717673e-02 2.092233138297e-01 0.000000000000e+00
  2.192567795986e-02 2.181381698333e-01 0.000000000000e+00
  2.007074582197e-02 2.281742828945e-01 0.000000000000e+00
  1.824375811071e-02 2.345810929290e-01 0.000000000000e+00
  1.759721363056e-02 2.299039917331e-01 0.000000000000e+00
  1.858009946072e-02 2.056807708556e-01 0.000000000000e+00
  2.084171562750e-02 1.549865093222e-01 0.000000000000e+00
  2.341827895266e-02 7.491772661415e-02 0.000000000000e+00
  2.511700439484e-02 -3.191234132275e-02 0.000000000000e+00
  2.493216264975e-02 -1.573671903965e-01 0.000000000000e+00
  2.233675053384e-02 -2.891635125378e-01 0.000000000000e+00
  1.737490905569e-02 -4.130828296925e-01 0.000000000000e+00
  1.057798832785e-02 -5.153766266462e-01 0.000000000000e+00
  2.786495489922e-03 -5.849135064852e-01 0.000000000000e+00
  -5.039667080540e-03 -6.148645245014e-01 0.000000000000e+00
  -1.198045110579e-02 -6.038253768902e-01 0.000000000000e+00
  -1.728397657397e-02 -5.562018006092e-01 0.000000000000e+00
  -2.047661281232e-02 -4.815923688022e-01 0.000000000000e+00
  -2.144892715362e-02 -3.930009379444e-01 0.000000000000e+00
  -2.048450616267e-02 -3.040822773476e-01 0.000000000000e+00
  -1.819389176202e-02 -2.261198525938e-01 0.000000000000e+00
  -1.534780785013e-02 -1.657365537247e-01 0.000000000000e+00
  -1.265724766250e-02 -1.241734992936e-01 0.000000000000e+00
  -1.058638570734e-02 -9.833317996717e-02 0.000000000000e+00
  -9.276144937753e-03 -8.299254762491e-02 0.000000000000e+00
  -8.600681270715e-03 -7.311282132281e-02 0.000000000000e+00
  -8.309936130065e-03 -6.529158882980e-02 0.000000000000e+00
  -8.173973896629e-03 -5.801304482253e-02 0.000000000000e+00
  -8.061415811999e-03 -5.103062210078e-02 0.000000000000e+00
  -7.937656338209e-03 -4.454035229688e-02 0.000000000000e+00
  -7.817348929098e-03 -3.865478943309e-02 0.000000000000e+00
  -7.718577826467e-03 -3.329286202462e-02 0.000000000000e+00
  -7.644469478661e-03 -2.829793033633e-02 0.000000000000e+00
  -7.588097146759e-03 -2.355359727110e-02 0.000000000000e+00
  -7.542885914698e-03 -1.900399657838e-02 0.000000000000e+00
  -7.506722594372e-03 -1.461735466987e-02 0.000000000000e+00
  -7.479969639435e-03 -1.035760761976e-02 0.000000000000e+00
  -7.462769857413e-03 -6.183284506569e-03 0.000000000000e+00
  -7.454488540231e-03 -2.056134706703e-03 0.000000000000e+00
  0.000000000000e+00 0.000000000000e+00 0.000000000000e+00
  0.000000000000e+00 0.000000000000e+00 0.000000000000e+00
  -1.111364716310e-02 2.217594689858e-03 0.000000000000e+00
  -1.113115653773e-02 6.668225552071e-03 0.000000000000e+00
  -1.116713612584e-02 1.116713612584e-02 0.000000000000e+00
  -1.122265315708e-02 1.575196929976e-02 0.000000000000e+00
  -1.129773719379e-02 2.046374484265e-02 0.000000000000e+00
  -1.139202805308e-02 2.534121144799e-02 0.000000000000e+00
  -1.150865616261e-02 3.042253213260e-02 0.000000000000e+00
  -1.165754345318e-02 3.576769684255e-02 0.000000000000e+00
  -1.185005224548e-02 4.148730051179e-02 0.000000000000e+00
  -1.208374419493e-02 4.772745446596e-02 0.000000000000e+00
  -1.233375389010e-02 5.457965199596e-02 0.000000000000e+00
  -1.257772384736e-02 6.198973319707e-02 0.000000000000e+00
  -1.286303607246e-02 6.985556570576e-02 0.000000000000e+00
  -1.338068649519e-02 7.847649165278e-02 0.000000000000e+00
  -1.447459657824e-02 8.927015881435e-02 0.000000000000e+00
  -1.652968404679e-02 1.053293303581e-01 0.000000000000e+00
  -1.975300749133e-02 1.312353808236e-01 0.000000000000e+00
  -2.394612043507e-02 1.717919912192e-01 0.000000000000e+00
  -2.839997002487e-02 2.299260153262e-01 0.000000000000e+00
  -3.199464247267e-02 3.045766555260e-01 0.000000000000e+00
  -3.348278210681e-02 3.895719178220e-01 0.000000000000e+00
  -3.184420484066e-02 4.741300516684e-01 0.000000000000e+00
  -2.657518650809e-02 5.449268037522e-01 0.000000000000e+00
  -1.782447439624e-02 5.890342313647e-01 0.000000000000e+00
  -6.366880660485e-03 5.967813305983e-01 0.000000000000e+00
  6.539516003023e-03 5.637633770264e-01 0.000000000000e+00
  1.936076608070e-02 4.916410993681e-01 0.000000000000e+00
  3.053422863046e-02 3.877560513037e-01 0.000000000000e+00
  3.874963016635e-02 2.637909353663e-01 0.000000000000e+00
  4.323894646021e-02 1.337491602177e-01 0.000000000000e+00
  4.399996644609e-02 1.154744146642e-02 0.000000000000e+00
  4.184047310772e-02 -9.139615791165e-02 0.000000000000e+00
  3.815354376683e-02 -1.680732912819e-01 0.000000000000e+00
  3.443489776156e-02 -2.167737381250e-01 0.000000000000e+00
  3.168950446122e-02 -2.406457018661e-01 0.000000000000e+00
  2.996583771744e-02 -2.460540575996e-01 0.000000000000e+00
  2.823253593896e-02 -2.403197161412e-01 0.000000000000e+00
  2.466895379020e-02 -2.296510623371e-01 0.000000000000e+00
  1.725208686291e-02 -2.179320254446e-01 0.000000000000e+00
  4.396622861806e-03 -2.065884039580e-01 0.000000000000e+00
  -1.458782797952e-02 -1.952710128245e-01 0.000000000000e+00
  -3.933612910732e-02 -1.828323323426e-01 0.000000000000e+00
  -6.852947595272e-02 -1.681272474960e-01 0.000000000000e+00
  -1.001421929829e-01 -1.504274732747e-01 0.000000000000e+00
  -1.317253121554e-01 -1.294989638033e-01 0.000000000000e+00
  -1.606794084009e-01 -1.055104421034e-01 0.000000000000e+00
  -1.845176709829e-01 -7.891463600532e-02 0.000000000000e+00
  -2.011251781755e-01 -5.035900379271e-02 0.000000000000e+00
  -2.089965979238e-01 -2.062221775969e-02 0.000000000000e+00
  -2.074152079576e-01 9.441127375846e-03 0.000000000000e+00
  -1.965386700005e-01 3.895556245433e-02 0.000000000000e+00
  -1.773751392873e-01 6.707987825489e-02 0.000000000000e+00
  -1.516537347841e-01 9.306160301753e-02 0.000000000000e+00
  -1.216113261362e-01 1.162899365621e-01 0.000000000000e+00
  -8.973361786343e-02 1.363479060337e-01 0.000000000000e+00
  -5.849648982516e-02 1.530728387424e-01 0.000000000000e+00
  -3.014126716650e-02 1.666403047075e-01 0.000000000000e+00
  -6.484918473667e-03 1.776635580317e-01 0.000000000000e+00
  1.126135907218e-02 1.872326304976e-01 0.000000000000e+00
  2.267855729770e-02 1.967413373692e-01 0.000000000000e+00
  2.828388607056e-02 2.073552709313e-01 0.000000000000e+00
  2.952114839167e-02 2.191309594320e-01 0.000000000000e+00
  2.848906571141e-02 2.300685079721e-01 0.000000000000e+00
  2.740184631790e-02 2.356010748581e-01 0.000000000000e+00
  2.793242057801e-02 2.289999799594e-01 0.000000000000e+00
  3.069497070066e-02 2.028393466358e-01 0.000000000000e+00
  3.509537869865e-02 1.511659093528e-01 0.000000000000e+00
  3.961838354665e-02 7.163875839646e-02 0.000000000000e+00
  4.241996098238e-02 -3.313367599056e-02 0.000000000000e+00
  4.196895194258e-02 -1.555100049477e-01 0.000000000000e+00
  3.749574747575e-02 -2.839520814058e-01 0.000000000000e+00
  2.913183490928e-02 -4.049685067808e-01 0.000000000000e+00
  1.777551207960e-02 -5.053377060008e-01 0.000000000000e+00
  4.811169461327e-03 -5.741965916746e-01 0.000000000000e+00
  -8.190241878995e-03 -6.047538654012e-01 0.000000000000e+00
  -1.972446334101e-02 -5.954610305031e-01 0.000000000000e+00
  -2.856058474422e-02 -5.504265001249e-01 0.000000000000e+00
  -3.392036050503e-02 -4.788152572873e-01 0.000000000000e+00
  -3.561916443991e-02 -3.931069311831e-01 0.000000000000e+00
  -3.411432738835e-02 -3.064455421514e-01 0.000000000000e+00
  -3.039939869266e-02 -2.297621308864e-01 0.000000000000e+00
  -2.573452700098e-02 -1.696052310357e-01 0.000000000000e+00
  -2.128930427530e-02 -1.274406048958e-01 0.000000000000e+00
  -1.783670540620e-02 -1.005895351892e-01 0.000000000000e+00
  -1.562451218259e-02 -8.425862639613e-02 0.000000000000e+00
  -1.446192616376e-02 -7.368479223746e-02 0.000000000000e+00
  -1.394777851511e-02 -6.552451070445e-02 0.000000000000e+00
  -1.370527057689e-02 -5.815859311955e-02 0.000000000000e+00
  -1.351304446071e-02 -5.118985800458e-02 0.000000000000e+00
  -1.330704788919e-02 -4.471087243838e-02 0.000000000000e+00
  -1.310651425348e-02 -3.880511033641e-02 0.000000000000e+00
  -1.293984920285e-02 -3.340797727455e-02 0.000000000000e+00
  -1.281308436209e-02 -2.838368827496e-02 0.000000000000e+00
  -1.271599091402e-02 -2.362130511244e-02 0.000000000000e+00
  -1.263819264779e-02 -1.905929823533e-02 0.000000000000e+00
  -1.257607593257e-02 -1.466033304846e-02 0.000000000000e+00
  -1.253004640030e-02 -1.038741172838e-02 0.000000000000e+00
  -1.250032911011e-02 -6.200397470154e-03 0.000000000000e+00
  -1.248596517922e-02 -2.061666991190e-03 0.000000000000e+00
  0.000000000000e+00 0.000000000000e+00 0.000000000000e+00
  0.000000000000e+00 0.000000000000e+00 0.000000000000e+00
  -1.567479714087e-02 2.228143014555e-03 0.000000000000e+00
  -1.570013397378e-02 6.700523434912e-03 0.000000000000e+00
  -1.575196929976e-02 1.122265315708e-02 0.000000000000e+00
  -1.583151657848e-02 1.583151657848e-02 0.000000000000e+00
  -1.593872391711e-02 2.056648893927e-02 0.000000000000e+00
  -1.607339599208e-02 2.546743028564e-02 0.000000000000e+00
  -1.624018711253e-02 3.057973252493e-02 0.000000000000e+00
  -1.645220937525e-02 3.597140600352e-02 0.000000000000e+00
  -1.672333088185e-02 4.174722164972e-02 0.000000000000e+00
  -1.704894197998e-02 4.802683637561e-02 0.000000000000e+00
  -1.739763679360e-02 5.487897459510e-02 0.000000000000e+00
  -1.774795628373e-02 6.228470004532e-02 0.000000000000e+00
  -1.817854718584e-02 7.027650198471e-02 0.000000000000e+00
  -1.896191852922e-02 7.935657713994e-02 0.000000000000e+00
  -2.056784577107e-02 9.108991065208e-02 0.000000000000e+00
  -2.350500394324e-02 1.085018241611e-01 0.000000000000e+00
  -2.802467235898e-02 1.358058788809e-01 0.000000000000e+00
  -3.381974785701e-02 1.772096816037e-01 0.000000000000e+00
  -3.989305824764e-02 2.350354849222e-01 0.000000000000e+00
  -4.470129326001e-02 3.078700933902e-01 0.000000000000e+00
  -4.654285002516e-02 3.896081763571e-01 0.000000000000e+00