# vtk DataFile Version 3.0
Karman Output
ASCII
DATASET RECTILINEAR_GRID
DIMENSIONS 101 101 1
X_COORDINATES 101 float
   0.000000000000e+00   9.900990099010e-03   1.980198019802e-02   2.970297029703e-02   3.960396039604e-02   4.950495049505e-02   5.940594059406e-02   6.930693069307e-02   7.920792079208e-02   8.910891089109e-02   9.900990099010e-02   1.089108910891e-01   1.188118811881e-01   1.287128712871e-01   1.386138613861e-01   1.485148514851e-01   1.584158415842e-01   1.683168316832e-01   1.782178217822e-01   1.881188118812e-01   1.980198019802e-01   2.079207920792e-01   2.178217821782e-01   2.277227722772e-01   2.376237623762e-01   2.475247524752e-01   2.574257425743e-01   2.673267326733e-01   2.772277227723e-01   2.871287128713e-01   2.970297029703e-01   3.069306930693e-01   3.168316831683e-01   3.267326732673e-01   3.366336633663e-01   3.465346534653e-01   3.564356435644e-01   3.663366336634e-01   3.762376237624e-01   3.861386138614e-01   3.960396039604e-01   4.059405940594e-01   4.158415841584e-01   4.257425742574e-01   4.356435643564e-01   4.455445544554e-01   4.554455445545e-01   4.653465346535e-01   4.752475247525e-01   4.851485148515e-01   4.950495049505e-01   5.049504950495e-01   5.148514851485e-01   5.247524752475e-01   5.346534653465e-01   5.445544554455e-01   5.544554455446e-01   5.643564356436e-01   5.742574257426e-01   5.841584158416e-01   5.940594059406e-01   6.039603960396e-01   6.138613861386e-01   6.237623762376e-01   6.336633663366e-01   6.435643564356e-01   6.534653465347e-01   6.633663366337e-01   6.732673267327e-01   6.831683168317e-01   6.930693069307e-01   7.029702970297e-01   7.128712871287e-01   7.227722772277e-01   7.326732673267e-01   7.425742574257e-01   7.524752475248e-01   7.623762376238e-01   7.722772277228e-01   7.821782178218e-01   7.920792079208e-01   8.019801980198e-01   8.118811881188e-01   8.217821782178e-01   8.316831683168e-01   8.415841584158e-01   8.514851485149e-01   8.613861386139e-01   8.712871287129e-01   8.811881188119e-01   8.910891089109e-01   9.009900990099e-01   9.108910891089e-01   9.207920792079e-01   9.306930693069e-01   9.405940594059e-01   9.504950495050e-01   9.603960396040e-01   9.702970297030e-01   9.801980198020e-01   9.900990099010e-01
Y_COORDINATES 101 float
   0.000000000000e+00   9.900990099010e-03   1.980198019802e-02   2.970297029703e-02   3.960396039604e-02   4.950495049505e-02   5.940594059406e-02   6.930693069307e-02   7.920792079208e-02   8.910891089109e-02   9.900990099010e-02   1.089108910891e-01   1.188118811881e-01   1.287128712871e-01   1.386138613861e-01   1.485148514851e-01   1.584158415842e-01   1.683168316832e-01   1.782178217822e-01   1.881188118812e-01   1.980198019802e-01   2.079207920792e-01   2.178217821782e-01   2.277227722772e-01   2.376237623762e-01   2.475247524752e-01   2.574257425743e-01   2.673267326733e-01   2.772277227723e-01   2.871287128713e-01   2.970297029703e-01   3.069306930693e-01   3.168316831683e-01   3.267326732673e-01   3.366336633663e-01   3.465346534653e-01   3.564356435644e-01   3.663366336634e-01   3.762376237624e-01   3.861386138614e-01   3.960396039604e-01   4.059405940594e-01   4.158415841584e-01   4.257425742574e-01   4.356435643564e-01   4.455445544554e-01   4.554455445545e-01   4.653465346535e-01   4.752475247525e-01   4.851485148515e-01   4.950495049505e-01   5.049504950495e-01   5.148514851485e-01   5.247524752475e-01   5.346534653465e-01   5.445544554455e-01   5.544554455446e-01   5.643564356436e-01   5.742574257426e-01   5.841584158416e-01   5.940594059406e-01   6.039603960396e-01   6.138613861386e-01   6.237623762376e-01   6.336633663366e-01   6.435643564356e-01   6.534653465347e-01   6.633663366337e-01   6.732673267327e-01   6.831683168317e-01   6.930693069307e-01   7.029702970297e-01   7.128712871287e-01   7.227722772277e-01   7.326732673267e-01   7.425742574257e-01   7.524752475248e-01   7.623762376238e-01   7.722772277228e-01   7.821782178218e-01   7.920792079208e-01   8.019801980198e-01   8.118811881188e-01   8.217821782178e-01   8.316831683168e-01   8.415841584158e-01   8.514851485149e-01   8.613861386139e-01   8.712871287129e-01   8.811881188119e-01   8.910891089109e-01   9.009900990099e-01   9.108910891089e-01   9.207920792079e-01   9.306930693069e-01   9.405940594059e-01   9.504950495050e-01   9.603960396040e-01   9.702970297030e-01   9.801980198020e-01   9.900990099010e-01
Z_COORDINATES 1 float
  0.000000000000e+00
POINT_DATA 10201
VECTORS E_field float
  0.000000000000e+00 0.000000000000e+00 0.000000000000e+00
  0.000000000000e+00 0.000000000000e+00 0.000000000000e+00
  0.000000000000e+00 0.000000000000e+00 0.000000000000e+00
  0.000000000000e+00 0.000000000000e+00 0.000000000000e+00
  0.000000000000e+00 0.000000000000e+00 0.000000000000e+00
  0.000000000000e+00 0.000000000000e+00 0.000000000000e+00
  0.000000000000e+00 0.000000000000e+00 0.000000000000e+00
  0.000000000000e+00 0.000000000000e+00 0.000000000000e+00
  0.000000000000e+00 0.000000000000e+00 0.000000000000e+00
  0.000000000000e+00 0.000000000000e+00 0.000000000000e+00
  0.000000000000e+00 0.000000000000e+00 0.000000000000e+00
  0.000000000000e+00 0.000000000000e+00 0.000000000000e+00
  0.000000000000e+00 0.000000000000e+00 0.000000000000e+00
  0.000000000000e+00 0.000000000000e+00 0.000000000000e+00
  0.000000000000e+00 0.000000000000e+00 0.000000000000e+00
  0.000000000000e+00 0.000000000000e+00 0.000000000000e+00
  0.000000000000e+00 0.000000000000e+00 0.000000000000e+00
  0.000000000000e+00 0.000000000000e+00 0.000000000000e+00
  0.000000000000e+00 0.000000000000e+00 0.000000000000e+00
  0.000000000000e+00 0.000000000000e+00 0.000000000000e+00
  0.000000000000e+00 0.000000000000e+00 0.000000000000e+00
  0.000000000000e+00 0.000000000000e+00 0.000000000000e+00
  0.000000000000e+00 0.000000000000e+00 0.000000000000e+00
  0.000000000000e+00 0.000000000000e+00 0.000000000000e+00
  0.000000000000e+00 0.000000000000e+00 0.000000000000e+00
  0.000000000000e+00 0.000000000000e+00 0.000000000000e+00
  0.000000000000e+00 0.000000000000e+00 0.000000000000e+00
  0.000000000000e+00 0.000000000000e+00 0.000000000000e+00
  0.000000000000e+00 0.000000000000e+00 0.000000000000e+00
  0.000000000000e+00 0.000000000000e+00 0.000000000000e+00
  0.000000000000e+00 0.000000000000e+00 0.000000000000e+00
  0.000000000000e+00 0.000000000000e+00 0.000000000000e+00
  0.000000000000e+00 0.000000000000e+00 0.000000000000e+00
  0.000000000000e+00 0.000000000000e+00 0.000000000000e+00
  0.000000000000e+00 0.000000000000e+00 0.000000000000e+00
  0.000000000000e+00 0.000000000000e+00 0.000000000000e+00
  0.000000000000e+00 0.000000000000e+00 0.000000000000e+00
  0.000000000000e+00 0.000000000000e+00 0.000000000000e+00
  0.000000000000e+00 0.000000000000e+00 0.000000000000e+00
  0.000000000000e+00 0.000000000000e+00 0.000000000000e+00
  0.000000000000e+00 0.000000000000e+00 0.000000000000e+00
  0.000000000000e+00 0.000000000000e+00 0.000000000000e+00
  0.000000000000e+00 0.000000000000e+00 0.000000000000e+00
  0.000000000000e+00 0.000000000000e+00 0.000000000000e+00
  0.000000000000e+00 0.000000000000e+00 0.000000000000e+00
  0.000000000000e+00 0.000000000000e+00 0.000000000000e+00
  0.000000000000e+00 0.000000000000e+00 0.000000000000e+00
  0.000000000000e+00 0.000000000000e+00 0.000000000000e+00
  0.000000000000e+00 0.000000000000e+00 0.000000000000e+00
  0.000000000000e+00 0.000000000000e+00 0.000000000000e+00
  0.000000000000e+00 0.000000000000e+00 0.000000000000e+00
  0.000000000000e+00 0.000000000000e+00 0.000000000000e+00
  0.000000000000e+00 0.000000000000e+00 0.000000000000e+00
  0.000000000000e+00 0.000000000000e+00 0.000000000000e+00
  0.000000000000e+00 0.000000000000e+00 0.000000000000e+00
  0.000000000000e+00 0.000000000000e+00 0.000000000000e+00
  0.000000000000e+00 0.000000000000e+00 0.000000000000e+00
  0.000000000000e+00 0.000000000000e+00 0.000000000000e+00
  0.000000000000e+00 0.000000000000e+00 0.000000000000e+00
  0.000000000000e+00 0.000000000000e+00 0.000000000000e+00
  0.000000000000e+00 0.000000000000e+00 0.000000000000e+00
  0.000000000000e+00 0.000000000000e+00 0.000000000000e+00
  0.000000000000e+00 0.000000000000e+00 0.000000000000e+00
  0.000000000000e+00 0.000000000000e+00 0.000000000000e+00
  0.000000000000e+00 0.000000000000e+00 0.000000000000e+00
  0.000000000000e+00 0.000000000000e+00 0.000000000000e+00
  0.000000000000e+00 0.000000000000e+00 0.000000000000e+00
  0.000000000000e+00 0.000000000000e+00 0.000000000000e+00
  0.000000000000e+00 0.000000000000e+00 0.000000000000e+00
  0.000000000000e+00 0.000000000000e+00 0.000000000000e+00
  0.000000000000e+00 0.000000000000e+00 0.000000000000e+00
  0.000000000000e+00 0.000000000000e+00 0.000000000000e+00
  0.000000000000e+00 0.000000000000e+00 0.000000000000e+00
  0.000000000000e+00 0.000000000000e+00 0.000000000000e+00
  0.000000000000e+00 0.000000000000e+00 0.000000000000e+00
  0.000000000000e+00 0.000000000000e+00 0.000000000000e+00
  0.000000000000e+00 0.000000000000e+00 0.000000000000e+00
  0.000000000000e+00 0.000000000000e+00 0.000000000000e+00
  0.000000000000e+00 0.000000000000e+00 0.000000000000e+00
  0.000000000000e+00 0.000000000000e+00 0.000000000000e+00
  0.000000000000e+00 0.000000000000e+00 0.000000000000e+00
  0.000000000000e+00 0.000000000000e+00 0.000000000000e+00
  0.000000000000e+00 0.000000000000e+00 0.000000000000e+00
  0.000000000000e+00 0.000000000000e+00 0.000000000000e+00
  0.000000000000e+00 0.000000000000e+00 0.000000000000e+00
  0.000000000000e+00 0.000000000000e+00 0.000000000000e+00
  0.000000000000e+00 0.000000000000e+00 0.000000000000e+00
  0.000000000000e+00 0.000000000000e+00 0.000000000000e+00
  0.000000000000e+00 0.000000000000e+00 0.000000000000e+00
  0.000000000000e+00 0.000000000000e+00 0.000000000000e+00
  0.000000000000e+00 0.000000000000e+00 0.000000000000e+00
  0.000000000000e+00 0.000000000000e+00 0.000000000000e+00
  0.000000000000e+00 0.000000000000e+00 0.000000000000e+00
  0.000000000000e+00 0.000000000000e+00 0.000000000000e+00
  0.000000000000e+00 0.000000000000e+00 0.000000000000e+00
  0.000000000000e+00 0.000000000000e+00 0.000000000000e+00
  0.000000000000e+00 0.000000000000e+00 0.000000000000e+00
  0.000000000000e+00 0.000000000000e+00 0.000000000000e+00
  0.000000000000e+00 0.000000000000e+00 0.000000000000e+00
  0.000000000000e+00 0.000000000000e+00 0.000000000000e+00
  0.000000000000e+00 0.000000000000e+00 0.000000000000e+00
  0.000000000000e+00 0.000000000000e+00 0.000000000000e+00
  4.332384222031e-02 -4.332384222031e-02 0.000000000000e+00
  4.232756289335e-02 -1.237204354207e-01 0.000000000000e+00
  4.029856091796e-02 -1.869041561101e-01 0.000000000000e+00
  3.721082318325e-02 -2.259558825262e-01 0.000000000000e+00
  3.311320471279e-02 -2.390456241118e-01 0.000000000000e+00
  2.817022479766e-02 -2.288203304631e-01 0.000000000000e+00
  2.265091466356e-02 -2.006202088372e-01 0.000000000000e+00
  1.686772029563e-02 -1.603778384987e-01 0.000000000000e+00
  1.109688462410e-02 -1.129925389488e-01 0.000000000000e+00
  5.522227999225e-03 -6.161463129578e-02 0.000000000000e+00
  2.297952341084e-04 -7.852503910829e-03 0.000000000000e+00
  -4.748660613436e-03 4.739002268747e-02 0.000000000000e+00
  -9.371307817037e-03 1.028643275495e-01 0.000000000000e+00
  -1.353676766606e-02 1.561125084665e-01 0.000000000000e+00
  -1.707339790740e-02 2.030863195811e-01 0.000000000000e+00
  -1.976936824244e-02 2.384234401788e-01 0.000000000000e+00
  -2.142700852181e-02 2.564025377204e-01 0.000000000000e+00
  -2.191778953552e-02 2.523869243037e-01 0.000000000000e+00
  -2.121907504528e-02 2.243154400994e-01 0.000000000000e+00
  -1.942535156843e-02 1.736427714868e-01 0.000000000000e+00
  -1.673811375869e-02 1.052552686015e-01 0.000000000000e+00
  -1.344440322020e-02 2.634090977882e-02 0.000000000000e+00
  -9.892024485651e-03 -5.525340823340e-02 0.000000000000e+00
  -6.462043143995e-03 -1.323829667855e-01 0.000000000000e+00
  -3.532410880720e-03 -1.991628578413e-01 0.000000000000e+00
  -1.427001874081e-03 -2.508353049509e-01 0.000000000000e+00
  -3.541746380104e-04 -2.835659837933e-01 0.000000000000e+00
  -3.530630403157e-04 -2.947560979879e-01 0.000000000000e+00
  -1.273774778484e-03 -2.839163017285e-01 0.000000000000e+00
  -2.810845707387e-03 -2.535482049957e-01 0.000000000000e+00
  -4.587811384379e-03 -2.092986222580e-01 0.000000000000e+00
  -6.265121758105e-03 -1.590106535142e-01 0.000000000000e+00
  -7.628712310803e-03 -1.109031244741e-01 0.000000000000e+00
  -8.622144701627e-03 -7.155273709554e-02 0.000000000000e+00
  -9.309842590224e-03 -4.441808763493e-02 0.000000000000e+00
  -9.790668807125e-03 -2.939625958135e-02 0.000000000000e+00
  -1.010427388808e-02 -2.352705363864e-02 0.000000000000e+00
  -1.017595225524e-02 -2.259104509441e-02 0.000000000000e+00
  -9.827461975673e-03 -2.304081997558e-02 0.000000000000e+00
  -8.849920907543e-03 -2.351952368014e-02 0.000000000000e+00
  -7.105219688023e-03 -2.526870494515e-02 0.000000000000e+00
  -4.608486933464e-03 -3.110312589962e-02 0.000000000000e+00
  -1.552744550640e-03 -4.327980996369e-02 0.000000000000e+00
  1.736111375885e-03 -6.124211594319e-02 0.000000000000e+00
  4.893760083403e-03 -8.048759859593e-02 0.000000000000e+00
  7.619736742131e-03 -9.342454055556e-02 0.000000000000e+00
  9.745309777992e-03 -9.213495591108e-02 0.000000000000e+00
  1.124344695527e-02 -7.191772092947e-02 0.000000000000e+00
  1.218424620379e-02 -3.393659619100e-02 0.000000000000e+00
  1.266076924478e-02 1.440574602321e-02 0.000000000000e+00
  1.271860913643e-02 6.172147948380e-02 0.000000000000e+00
  1.231788011483e-02 9.663443766004e-02 0.000000000000e+00
  1.134312310676e-02 1.118062075581e-01 0.000000000000e+00
  9.659240134564e-03 1.062657590534e-01 0.000000000000e+00
  7.193650707120e-03 8.512227005348e-02 0.000000000000e+00
  4.011582179490e-03 5.696241117458e-02 0.000000000000e+00
  3.496260703325e-04 3.026267450074e-02 0.000000000000e+00
  -3.413366803554e-03 1.047758034053e-02 0.000000000000e+00
  -6.842930455120e-03 -1.032741373720e-03 0.000000000000e+00
  -9.561635019998e-03 -6.076295521970e-03 0.000000000000e+00
  -1.134319573656e-02 -7.489238361326e-03 0.000000000000e+00
  -1.215134771794e-02 -6.987546153364e-03 0.000000000000e+00
  -1.211215910931e-02 -4.001969397148e-03 0.000000000000e+00
  -1.143884583598e-02 4.122872398330e-03 0.000000000000e+00
  -1.034847551198e-02 2.082048522034e-02 0.000000000000e+00
  -9.010142819145e-03 4.853076861722e-02 0.000000000000e+00
  -7.544385657684e-03 8.718470450738e-02 0.000000000000e+00
  -6.064275279438e-03 1.335043390445e-01 0.000000000000e+00
  -4.725401847368e-03 1.813836610001e-01 0.000000000000e+00
  -3.747447528960e-03 2.232531400600e-01 0.000000000000e+00
  -3.386639640082e-03 2.519595933732e-01 0.000000000000e+00
  -3.866712767492e-03 2.624492082056e-01 0.000000000000e+00
  -5.299892218033e-03 2.526068598136e-01 0.000000000000e+00
  -7.635303943271e-03 2.230401089249e-01 0.000000000000e+00
  -1.065752154962e-02 1.761902245615e-01 0.000000000000e+00
  -1.403251978762e-02 1.154996041282e-01 0.000000000000e+00
  -1.737764283376e-02 4.517962666692e-02 0.000000000000e+00
  -2.032715997962e-02 -2.947731639937e-02 0.000000000000e+00
  -2.257532278870e-02 -1.018418218766e-01 0.000000000000e+00
  -2.389510129900e-02 -1.643918394279e-01 0.000000000000e+00
  -2.414210245667e-02 -2.100091678481e-01 0.000000000000e+00
  -2.325446471653e-02 -2.336448873637e-01 0.000000000000e+00
  -2.125312896244e-02 -2.335721509610e-01 0.000000000000e+00
  -1.823910993637e-02 -2.116585758549e-01 0.000000000000e+00
  -1.438072593290e-02 -1.726007889153e-01 0.000000000000e+00
  -9.886271687122e-03 -1.225056255476e-01 0.000000000000e+00
  -4.965050121639e-03 -6.736405561119e-02 0.000000000000e+00
  2.116080334726e-04 -1.187898263849e-02 0.000000000000e+00
  5.532687623021e-03 4.107557329981e-02 0.000000000000e+00
  1.093991963336e-02 9.027239580875e-02 0.000000000000e+00
  1.639007271886e-02 1.353171364605e-01 0.000000000000e+00
  2.180443234927e-02 1.754857671608e-01 0.000000000000e+00
  2.703408212703e-02 2.086627156695e-01 0.000000000000e+00
  3.186483716459e-02 2.308858100889e-01 0.000000000000e+00
  3.606446997992e-02 2.368714965439e-01 0.000000000000e+00
  3.944896904519e-02 2.215516427319e-01 0.000000000000e+00
  4.193097947656e-02 1.821870731329e-01 0.000000000000e+00
  4.352240961204e-02 1.202318869349e-01 0.000000000000e+00
  4.428989060812e-02 4.204862940326e-02 0.000000000000e+00
  0.000000000000e+00 0.000000000000e+00 0.000000000000e+00
  0.000000000000e+00 0.000000000000e+00 0.000000000000e+00
  1.237204354207e-01 -4.232756289335e-02 0.000000000000e+00
  1.206912457920e-01 -1.206912457920e-01 0.000000000000e+00
  1.145597259616e-01 -1.817728239330e-01 0.000000000000e+00
  1.053073604531e-01 -2.187471114601e-01 0.000000000000e+00
  9.314382801283e-02 -2.299932442672e-01 0.000000000000e+00
  7.861145494176e-02 -2.183973573215e-01 0.000000000000e+00
  6.254242376165e-02 -1.894548406646e-01 0.000000000000e+00
  4.587625525259e-02 -1.490938437943e-01 0.000000000000e+00
  2.942792523932e-02 -1.020573679683e-01 0.000000000000e+00
  1.372611225060e-02 -5.127333266264e-02 0.000000000000e+00
  -1.000477328937e-03 1.825219800689e-03 0.000000000000e+00
  -1.469498029693e-02 5.638525779150e-02 0.000000000000e+00
  -2.728284457366e-02 1.110796039258e-01 0.000000000000e+00
  -3.852407747204e-02 1.633039248376e-01 0.000000000000e+00
  -4.797676151485e-02 2.088842174942e-01 0.000000000000e+00
  -5.507891720093e-02 2.424236682869e-01 0.000000000000e+00
  -5.930189062881e-02 2.582829233195e-01 0.000000000000e+00
  -6.030684583450e-02 2.520022749240e-01 0.000000000000e+00
  -5.804887963221e-02 2.217434087866e-01 0.000000000000e+00
  -5.280687123050e-02 1.691790709210e-01 0.000000000000e+00
  -4.515154738066e-02 9.937640750771e-02 0.000000000000e+00
  -3.588234672534e-02 1.965685967882e-02 0.000000000000e+00
  -2.595813879683e-02 -6.204594479646e-02 0.000000000000e+00
  -1.642419242973e-02 -1.385543579312e-01 0.000000000000e+00
  -8.316510632225e-03 -2.040287807564e-01 0.000000000000e+00
  -2.524875597775e-03 -2.538664260769e-01 0.000000000000e+00
  3.755797260731e-04 -2.845081452272e-01 0.000000000000e+00
  2.732354080906e-04 -2.937127038336e-01 0.000000000000e+00
  -2.424881051509e-03 -2.813408676849e-01 0.000000000000e+00
  -6.885848310966e-03 -2.501256008508e-01 0.000000000000e+00
  -1.208404903253e-02 -2.057460600042e-01 0.000000000000e+00
  -1.709552947820e-02 -1.558744249484e-01 0.000000000000e+00
  -2.133466896651e-02 -1.084366229985e-01 0.000000000000e+00
  -2.463319957038e-02 -6.972727557562e-02 0.000000000000e+00
  -2.713227418615e-02 -4.305677664885e-02 0.000000000000e+00
  -2.904556952426e-02 -2.836344900947e-02 0.000000000000e+00
  -3.041193504911e-02 -2.287989359964e-02 0.000000000000e+00
  -3.096056353109e-02 -2.261789827591e-02 0.000000000000e+00
  -3.015809896697e-02 -2.416492162472e-02 0.000000000000e+00
  -2.742065927189e-02 -2.611040277475e-02 0.000000000000e+00
  -2.239470346573e-02 -2.944848284860e-02 0.000000000000e+00
  -1.517611506371e-02 -3.663866911542e-02 0.000000000000e+00
  -6.363587535401e-03 -4.961253661113e-02 0.000000000000e+00
  3.081790872676e-03 -6.764362357209e-02 0.000000000000e+00
  1.211044333044e-02 -8.627239206534e-02 0.000000000000e+00
  1.987365209231e-02 -9.812893243437e-02 0.000000000000e+00
  2.591035442072e-02 -9.559283932359e-02 0.000000000000e+00
  3.016718398098e-02 -7.421480418698e-02 0.000000000000e+00
  3.286368500911e-02 -3.527681315438e-02 0.000000000000e+00
  3.427532127544e-02 1.385780371756e-02 0.000000000000e+00
  3.453014448255e-02 6.195675870735e-02 0.000000000000e+00
  3.350117608581e-02 9.782885584799e-02 0.000000000000e+00
  3.083835873986e-02 1.142493636946e-01 0.000000000000e+00
  2.613377505488e-02 1.102110695250e-01 0.000000000000e+00
  1.916225997633e-02 9.061406402450e-02 0.000000000000e+00
  1.010153818967e-02 6.371340744641e-02 0.000000000000e+00
  -3.687600610741e-04 3.764393251550e-02 0.000000000000e+00
  -1.114956799395e-02 1.764012306276e-02 0.000000000000e+00
  -2.097196152594e-02 5.056673025367e-03 0.000000000000e+00
  -2.872388332482e-02 -1.695083609653e-03 0.000000000000e+00
  -3.372655713035e-02 -5.086215793257e-03 0.000000000000e+00
  -3.585470748222e-02 -6.454266419713e-03 0.000000000000e+00
  -3.546578539383e-02 -4.963359850496e-03 0.000000000000e+00
  -3.318921143427e-02 2.134375603262e-03 0.000000000000e+00
  -2.968525150988e-02 1.821465175690e-02 0.000000000000e+00
  -2.548626005207e-02 4.559927792371e-02 0.000000000000e+00
  -2.098003160440e-02 8.414420958804e-02 0.000000000000e+00
  -1.651377130504e-02 1.305984632841e-01 0.000000000000e+00
  -1.253062400163e-02 1.789675160238e-01 0.000000000000e+00
  -9.634528539490e-03 2.217952352551e-01 0.000000000000e+00
  -8.522183010034e-03 2.519443447595e-01 0.000000000000e+00
  -9.798857785346e-03 2.642212047219e-01 0.000000000000e+00
  -1.376298892603e-02 2.562321738884e-01 0.000000000000e+00
  -2.026376625811e-02 2.282509839074e-01 0.000000000000e+00
  -2.869688176925e-02 1.824346826965e-01 0.000000000000e+00
  -3.813246925067e-02 1.220657317126e-01 0.000000000000e+00
  -4.751003039357e-02 5.133618327159e-02 0.000000000000e+00
  -5.581987849713e-02 -2.437450775461e-02 0.000000000000e+00
  -6.221989999230e-02 -9.829644621716e-02 0.000000000000e+00
  -6.608343396154e-02 -1.627539026079e-01 0.000000000000e+00
  -6.700688729784e-02 -2.104766501742e-01 0.000000000000e+00
  -6.480887797192e-02 -2.362630521036e-01 0.000000000000e+00
  -5.953305897353e-02 -2.382311409735e-01 0.000000000000e+00
  -5.144337595251e-02 -2.181032878895e-01 0.000000000000e+00
  -4.099000339331e-02 -1.804678334433e-01 0.000000000000e+00
  -2.873252087212e-02 -1.313905177865e-01 0.000000000000e+00
  -1.522942099181e-02 -7.690348481807e-02 0.000000000000e+00
  -9.284645540089e-04 -2.181716802453e-02 0.000000000000e+00
  1.389375863773e-02 3.087045590456e-02 0.000000000000e+00
  2.910536275046e-02 7.985867708093e-02 0.000000000000e+00
  4.460617330356e-02 1.247798915498e-01 0.000000000000e+00
  6.017890779974e-02 1.650359179450e-01 0.000000000000e+00
  7.538713783922e-02 1.986746850680e-01 0.000000000000e+00
  8.958860611971e-02 2.218416173723e-01 0.000000000000e+00
  1.020717090399e-01 2.292329535250e-01 0.000000000000e+00
  1.122490082479e-01 2.156283874776e-01 0.000000000000e+00
  1.198027040973e-01 1.780746221065e-01 0.000000000000e+00
  1.247016442602e-01 1.178539676629e-01 0.000000000000e+00
  1.270846963652e-01 4.127601557415e-02 0.000000000000e+00
  0.000000000000e+00 0.000000000000e+00 0.000000000000e+00
  0.000000000000e+00 0.000000000000e+00 0.000000000000e+00
  1.869041561101e-01 -4.029856091796e-02 0.000000000000e+00
  1.817728239330e-01 -1.145597259616e-01 0.000000000000e+00
  1.714952311108e-01 -1.714952311108e-01 0.000000000000e+00
  1.562149598824e-01 -2.044920675455e-01 0.000000000000e+00
  1.364630631145e-01 -2.123328589736e-01 0.000000000000e+00
  1.132781904710e-01 -1.983404969005e-01 0.000000000000e+00
  8.810870973102e-02 -1.682731891656e-01 0.000000000000e+00
  6.251366045196e-02 -1.280142775052e-01 0.000000000000e+00
  3.780035461672e-02 -8.197529840890e-02 0.000000000000e+00
  1.477765562590e-02 -3.263089024254e-02 0.000000000000e+00
  -6.259448360806e-03 1.894647094682e-02 0.000000000000e+00
  -2.532501834464e-02 7.202407959719e-02 0.000000000000e+00
  -4.243993004923e-02 1.251435581014e-01 0.000000000000e+00
  -5.739047443773e-02 1.754317479489e-01 0.000000000000e+00
  -6.965643238470e-02 2.184750363727e-01 0.000000000000e+00
  -7.852285546244e-02 2.488014281722e-01 0.000000000000e+00
  -8.330585969957e-02 2.609111410993e-01 0.000000000000e+00
  -8.358641966421e-02 2.506595723146e-01 0.000000000000e+00
  -7.936363570640e-02 2.166053612359e-01 0.000000000000e+00
  -7.109149669055e-02 1.608029710542e-01 0.000000000000e+00
  -5.962005777804e-02 8.862574461219e-02 0.000000000000e+00
  -4.609380572267e-02 7.612069863660e-03 0.000000000000e+00
  -3.185181947531e-02 -7.416734915719e-02 0.000000000000e+00
  -1.833534785828e-02 -1.494833715546e-01 0.000000000000e+00
  -6.969982785882e-03 -2.125728140029e-01 0.000000000000e+00
  1.013401106040e-03 -2.590974117568e-01 0.000000000000e+00
  4.810576097725e-03 -2.859747898629e-01 0.000000000000e+00
  4.254935973346e-03 -2.915880747556e-01 0.000000000000e+00
  -1.027131639113e-04 -2.764097311660e-01 0.000000000000e+00
  -7.124474636564e-03 -2.435740086373e-01 0.000000000000e+00
  -1.541120051658e-02 -1.988127256155e-01 0.000000000000e+00
  -2.370479414732e-02 -1.495026852593e-01 0.000000000000e+00
  -3.119685893701e-02 -1.030771584067e-01 0.000000000000e+00
  -3.761036659044e-02 -6.537470190443e-02 0.000000000000e+00
  -4.302856375327e-02 -3.949207853080e-02 0.000000000000e+00
  -4.756732337410e-02 -2.547609214956e-02 0.000000000000e+00
  -5.106183112946e-02 -2.090637714693e-02 0.000000000000e+00
  -5.293066997594e-02 -2.217394734745e-02 0.000000000000e+00
  -5.229555097531e-02 -2.604645603625e-02 0.000000000000e+00
  -4.831342651483e-02 -3.094843239805e-02 0.000000000000e+00
  -4.057503653307e-02 -3.737479884323e-02 0.000000000000e+00
  -2.938689900363e-02 -4.711907882431e-02 0.000000000000e+00
  -1.580053343666e-02 -6.153101970696e-02 0.000000000000e+00
  -1.363664140200e-03 -7.960738782934e-02 0.000000000000e+00
  1.230767692530e-02 -9.700862092933e-02 0.000000000000e+00
  2.395937695117e-02 -1.068076119254e-01 0.000000000000e+00
  3.296068489086e-02 -1.019521696660e-01 0.000000000000e+00
  3.930830645490e-02 -7.845992456731e-02 0.000000000000e+00
  4.339826992418e-02 -3.781815693985e-02 0.000000000000e+00
  4.568028404395e-02 1.270549734528e-02 0.000000000000e+00
  4.634243709162e-02 6.219208892565e-02 0.000000000000e+00
  4.515125437930e-02 9.981367670096e-02 0.000000000000e+00
  4.151220102529e-02 1.185664133694e-01 0.000000000000e+00
  3.473769185043e-02 1.173731124220e-01 0.000000000000e+00
  2.443027922844e-02 1.007309484539e-01 0.000000000000e+00
  1.083132895603e-02 7.625619465180e-02 0.000000000000e+00
  -5.020202235206e-03 5.142297431425e-02 0.000000000000e+00
  -2.141140590318e-02 3.103309244558e-02 0.000000000000e+00
  -3.633979452357e-02 1.641448541838e-02 0.000000000000e+00
  -4.802221395664e-02 6.381444910126e-03 0.000000000000e+00
  -5.533499203891e-02 -8.472926815451e-04 0.000000000000e+00
  -5.802243580806e-02 -5.877595605916e-03 0.000000000000e+00
  -5.661429624840e-02 -7.337092454260e-03 0.000000000000e+00
  -5.211935419251e-02 -2.263407906545e-03 0.000000000000e+00
  -4.565212926634e-02 1.264125035149e-02 0.000000000000e+00
  -3.816176501796e-02 3.948332358230e-02 0.000000000000e+00
  -3.036270690134e-02 7.795487734082e-02 0.000000000000e+00
  -2.285184421819e-02 1.248106725349e-01 0.000000000000e+00
  -1.629568730727e-02 1.742160025512e-01 0.000000000000e+00
  -1.153733806115e-02 2.188923040156e-01 0.000000000000e+00
  -9.525016541207e-03 2.517226089477e-01 0.000000000000e+00
  -1.107268407307e-02 2.672672828400e-01 0.000000000000e+00
  -1.656600983531e-02 2.626435526728e-01 0.000000000000e+00
  -2.576304690591e-02 2.375374195254e-01 0.000000000000e+00
  -3.778846539681e-02 1.936067810804e-01 0.000000000000e+00
  -5.131724333998e-02 1.338579987533e-01 0.000000000000e+00
  -6.485375406187e-02 6.245798809571e-02 0.000000000000e+00
  -7.698688233783e-02 -1.505333619920e-02 0.000000000000e+00
  -8.654564117018e-02 -9.165883744505e-02 0.000000000000e+00
  -9.265267122052e-02 -1.594209473604e-01 0.000000000000e+00
  -9.472395737409e-02 -2.108148659318e-01 0.000000000000e+00
  -9.246603489991e-02 -2.403807681461e-01 0.000000000000e+00
  -8.588769295286e-02 -2.459675858765e-01 0.000000000000e+00
  -7.530388787727e-02 -2.290403310831e-01 0.000000000000e+00
  -6.129346850538e-02 -1.939945821808e-01 0.000000000000e+00
  -4.458830560518e-02 -1.468264144705e-01 0.000000000000e+00
  -2.590962329682e-02 -9.364937032278e-02 0.000000000000e+00
  -5.807554581166e-03 -3.947430767329e-02 0.000000000000e+00
  1.542053446985e-02 1.247728331057e-02 0.000000000000e+00
  3.767652311804e-02 6.078425691400e-02 0.000000000000e+00
  6.087623717661e-02 1.051537871050e-01 0.000000000000e+00
  8.471220424842e-02 1.452533208218e-01 0.000000000000e+00
  1.084914386213e-01 1.794698177789e-01 0.000000000000e+00
  1.311529210359e-01 2.041835339662e-01 0.000000000000e+00
  1.514774994187e-01 2.140833556280e-01 0.000000000000e+00
  1.683917530728e-01 2.036864325125e-01 0.000000000000e+00
  1.812083972050e-01 1.696462370900e-01 0.000000000000e+00
  1.896810134934e-01 1.129107962282e-01 0.000000000000e+00
  1.938609681091e-01 3.965618028827e-02 0.000000000000e+00
  0.000000000000e+00 0.000000000000e+00 0.000000000000e+00
  0.000000000000e+00 0.000000000000e+00 0.000000000000e+00
  2.259558825262e-01 -3.721082318325e-02 0.000000000000e+00
  2.187471114601e-01 -1.053073604531e-01 0.000000000000e+00
  2.044920675455e-01 -1.562149598824e-01 0.000000000000e+00
  1.836860418767e-01 -1.836860418767e-01 0.000000000000e+00
  1.573679933200e-01 -1.870689393177e-01 0.000000000000e+00
  1.271931453953e-01 -1.702446959882e-01 0.000000000000e+00
  9.525363459203e-02 -1.392599985346e-01 0.000000000000e+00
  6.367772632875e-02 -9.985651059384e-02 0.000000000000e+00
  3.417475671417e-02 -5.591678987046e-02 0.000000000000e+00
  7.736800574498e-03 -9.228743650483e-03 0.000000000000e+00
  -1.536914076292e-02 3.968736967889e-02 0.000000000000e+00
  -3.533506894322e-02 9.031467902927e-02 0.000000000000e+00
  -5.242188939189e-02 1.410546908226e-01 0.000000000000e+00
  -6.663897282397e-02 1.886882430483e-01 0.000000000000e+00
  -7.762973575986e-02 2.284752621561e-01 0.000000000000e+00
  -8.478604272186e-02 2.548239324285e-01 0.000000000000e+00
  -8.750898982819e-02 2.623945881865e-01 0.000000000000e+00
  -8.548346517965e-02 2.474311605435e-01 0.000000000000e+00
  -7.885155887403e-02 2.089790827435e-01 0.000000000000e+00
  -6.823699446804e-02 1.495425461247e-01 0.000000000000e+00
  -5.465086240607e-02 7.482859856719e-02 0.000000000000e+00