# vtk DataFile Version 3.0
Karman Output
ASCII
DATASET RECTILINEAR_GRID
DIMENSIONS 101 101 1
X_COORDINATES 101 float
   0.000000000000e+00   9.900990099010e-03   1.980198019802e-02   2.970297029703e-02   3.960396039604e-02   4.950495049505e-02   5.940594059406e-02   6.930693069307e-02   7.920792079208e-02   8.910891089109e-02   9.900990099010e-02   1.089108910891e-01   1.188118811881e-01   1.287128712871e-01   1.386138613861e-01   1.485148514851e-01   1.584158415842e-01   1.683168316832e-01   1.782178217822e-01   1.881188118812e-01   1.980198019802e-01   2.079207920792e-01   2.178217821782e-01   2.277227722772e-01   2.376237623762e-01   2.475247524752e-01   2.574257425743e-01   2.673267326733e-01   2.772277227723e-01   2.871287128713e-01   2.970297029703e-01   3.069306930693e-01   3.168316831683e-01   3.267326732673e-01   3.366336633663e-01   3.465346534653e-01   3.564356435644e-01   3.663366336634e-01   3.762376237624e-01   3.861386138614e-01   3.960396039604e-01   4.059405940594e-01   4.158415841584e-01   4.257425742574e-01   4.356435643564e-01   4.455445544554e-01   4.554455445545e-01   4.653465346535e-01   4.752475247525e-01   4.851485148515e-01   4.950495049505e-01   5.049504950495e-01   5.148514851485e-01   5.247524752475e-01   5.346534653465e-01   5.445544554455e-01   5.544554455446e-01   5.643564356436e-01   5.742574257426e-01   5.841584158416e-01   5.940594059406e-01   6.039603960396e-01   6.138613861386e-01   6.237623762376e-01   6.336633663366e-01   6.435643564356e-01   6.534653465347e-01   6.633663366337e-01   6.732673267327e-01   6.831683168317e-01   6.930693069307e-01   7.029702970297e-01   7.128712871287e-01   7.227722772277e-01   7.326732673267e-01   7.425742574257e-01   7.524752475248e-01   7.623762376238e-01   7.722772277228e-01   7.821782178218e-01   7.920792079208e-01   8.019801980198e-01   8.118811881188e-01   8.217821782178e-01   8.316831683168e-01   8.415841584158e-01   8.514851485149e-01   8.613861386139e-01   8.712871287129e-01   8.811881188119e-01   8.910891089109e-01   9.009900990099e-01   9.108910891089e-01   9.207920792079e-01   9.306930693069e-01   9.405940594059e-01   9.504950495050e-01   9.603960396040e-01   9.702970297030e-01   9.801980198020e-01   9.900990099010e-01
Y_COORDINATES 101 float
   0.000000000000e+00   9.900990099010e-03   1.980198019802e-02   2.970297029703e-02   3.960396039604e-02   4.950495049505e-02   5.940594059406e-02   6.930693069307e-02   7.920792079208e-02   8.910891089109e-02   9.900990099010e-02   1.089108910891e-01   1.188118811881e-01   1.287128712871e-01   1.386138613861e-01   1.485148514851e-01   1.584158415842e-01   1.683168316832e-01   1.782178217822e-01   1.881188118812e-01   1.980198019802e-01   2.079207920792e-01   2.178217821782e-01   2.277227722772e-01   2.376237623762e-01   2.475247524752e-01   2.574257425743e-01   2.673267326733e-01   2.772277227723e-01   2.871287128713e-01   2.970297029703e-01   3.069306930693e-01   3.168316831683e-01   3.267326732673e-01   3.366336633663e-01   3.465346534653e-01   3.564356435644e-01   3.663366336634e-01   3.762376237624e-01   3.861386138614e-01   3.960396039604e-01   4.059405940594e-01   4.158415841584e-01   4.257425742574e-01   4.356435643564e-01   4.455445544554e-01   4.554455445545e-01   4.653465346535e-01   4.752475247525e-01   4.851485148515e-01   4.950495049505e-01   5.049504950495e-01   5.148514851485e-01   5.247524752475e-01   5.346534653465e-01   5.445544554455e-01   5.544554455446e-01   5.643564356436e-01   5.742574257426e-01   5.841584158416e-01   5.940594059406e-01   6.039603960396e-01   6.138613861386e-01   6.237623762376e-01   6.336633663366e-01   6.435643564356e-01   6.534653465347e-01   6.633663366337e-01   6.732673267327e-01   6.831683168317e-01   6.930693069307e-01   7.029702970297e-01   7.128712871287e-01   7.227722772277e-01   7.326732673267e-01   7.425742574257e-01   7.524752475248e-01   7.623762376238e-01   7.722772277228e-01   7.821782178218e-01   7.920792079208e-01   8.019801980198e-01   8.118811881188e-01   8.217821782178e-01   8.316831683168e-01   8.415841584158e-01   8.514851485149e-01   8.613861386139e-01   8.712871287129e-01   8.811881188119e-01   8.910891089109e-01   9.009900990099e-01   9.108910891089e-01   9.207920792079e-01   9.306930693069e-01   9.405940594059e-01   9.504950495050e-01   9.603960396040e-01   9.702970297030e-01   9.801980198020e-01   9.900990099010e-01
Z_COORDINATES 1 float
  0.000000000000e+00
POINT_DATA 10201
VECTORS E_field float
  0.000000000000e+00 0.000000000000e+00 0.000000000000e+00
  0.000000000000e+00 0.000000000000e+00 0.000000000000e+00
  0.000000000000e+00 0.000000000000e+00 0.000000000000e+00
  0.000000000000e+00 0.000000000000e+00 0.000000000000e+00
  0.000000000000e+00 0.000000000000e+00 0.000000000000e+00
  0.000000000000e+00 0.000000000000e+00 0.000000000000e+00
  0.000000000000e+00 0.000000000000e+00 0.000000000000e+00
  0.000000000000e+00 0.000000000000e+00 0.000000000000e+00
  0.000000000000e+00 0.000000000000e+00 0.000000000000e+00
  0.000000000000e+00 0.000000000000e+00 0.000000000000e+00
  0.000000000000e+00 0.000000000000e+00 0.000000000000e+00
  0.000000000000e+00 0.000000000000e+00 0.000000000000e+00
  0.000000000000e+00 0.000000000000e+00 0.000000000000e+00
  0.000000000000e+00 0.000000000000e+00 0.000000000000e+00
  0.000000000000e+00 0.000000000000e+00 0.000000000000e+00
  0.000000000000e+00 0.000000000000e+00 0.000000000000e+00
  0.000000000000e+00 0.000000000000e+00 0.000000000000e+00
  0.000000000000e+00 0.000000000000e+00 0.000000000000e+00
  0.000000000000e+00 0.000000000000e+00 0.000000000000e+00
  0.000000000000e+00 0.000000000000e+00 0.000000000000e+00
  0.000000000000e+00 0.000000000000e+00 0.000000000000e+00
  0.000000000000e+00 0.000000000000e+00 0.000000000000e+00
  0.000000000000e+00 0.000000000000e+00 0.000000000000e+00
  0.000000000000e+00 0.000000000000e+00 0.000000000000e+00
  0.000000000000e+00 0.000000000000e+00 0.000000000000e+00
  0.000000000000e+00 0.000000000000e+00 0.000000000000e+00
  0.000000000000e+00 0.000000000000e+00 0.000000000000e+00
  0.000000000000e+00 0.000000000000e+00 0.000000000000e+00
  0.000000000000e+00 0.000000000000e+00 0.000000000000e+00
  0.000000000000e+00 0.000000000000e+00 0.000000000000e+00
  0.000000000000e+00 0.000000000000e+00 0.000000000000e+00
  0.000000000000e+00 0.000000000000e+00 0.000000000000e+00
  0.000000000000e+00 0.000000000000e+00 0.000000000000e+00
  0.000000000000e+00 0.000000000000e+00 0.000000000000e+00
  0.000000000000e+00 0.000000000000e+00 0.000000000000e+00
  0.000000000000e+00 0.000000000000e+00 0.000000000000e+00
  0.000000000000e+00 0.000000000000e+00 0.000000000000e+00
  0.000000000000e+00 0.000000000000e+00 0.000000000000e+00
  0.000000000000e+00 0.000000000000e+00 0.000000000000e+00
  0.000000000000e+00 0.000000000000e+00 0.000000000000e+00
  0.000000000000e+00 0.000000000000e+00 0.000000000000e+00
  0.000000000000e+00 0.000000000000e+00 0.000000000000e+00
  0.000000000000e+00 0.000000000000e+00 0.000000000000e+00
  0.000000000000e+00 0.000000000000e+00 0.000000000000e+00
  0.000000000000e+00 0.000000000000e+00 0.000000000000e+00
  0.000000000000e+00 0.000000000000e+00 0.000000000000e+00
  0.000000000000e+00 0.000000000000e+00 0.000000000000e+00
  0.000000000000e+00 0.000000000000e+00 0.000000000000e+00
  0.000000000000e+00 0.000000000000e+00 0.000000000000e+00
  0.000000000000e+00 0.000000000000e+00 0.000000000000e+00
  0.000000000000e+00 0.000000000000e+00 0.000000000000e+00
  0.000000000000e+00 0.000000000000e+00 0.000000000000e+00
  0.000000000000e+00 0.000000000000e+00 0.000000000000e+00
  0.000000000000e+00 0.000000000000e+00 0.000000000000e+00
  0.000000000000e+00 0.000000000000e+00 0.000000000000e+00
  0.000000000000e+00 0.000000000000e+00 0.000000000000e+00
  0.000000000000e+00 0.000000000000e+00 0.000000000000e+00
  0.000000000000e+00 0.000000000000e+00 0.000000000000e+00
  0.000000000000e+00 0.000000000000e+00 0.000000000000e+00
  0.000000000000e+00 0.000000000000e+00 0.000000000000e+00
  0.000000000000e+00 0.000000000000e+00 0.000000000000e+00
  0.000000000000e+00 0.000000000000e+00 0.000000000000e+00
  0.000000000000e+00 0.000000000000e+00 0.000000000000e+00
  0.000000000000e+00 0.000000000000e+00 0.000000000000e+00
  0.000000000000e+00 0.000000000000e+00 0.000000000000e+00
  0.000000000000e+00 0.000000000000e+00 0.000000000000e+00
  0.000000000000e+00 0.000000000000e+00 0.000000000000e+00
  0.000000000000e+00 0.000000000000e+00 0.000000000000e+00
  0.000000000000e+00 0.000000000000e+00 0.000000000000e+00
  0.000000000000e+00 0.000000000000e+00 0.000000000000e+00
  0.000000000000e+00 0.000000000000e+00 0.000000000000e+00
  0.000000000000e+00 0.000000000000e+00 0.000000000000e+00
  0.000000000000e+00 0.000000000000e+00 0.000000000000e+00
  0.000000000000e+00 0.000000000000e+00 0.000000000000e+00
  0.000000000000e+00 0.000000000000e+00 0.000000000000e+00
  0.000000000000e+00 0.000000000000e+00 0.000000000000e+00
  0.000000000000e+00 0.000000000000e+00 0.000000000000e+00
  0.000000000000e+00 0.000000000000e+00 0.000000000000e+00
  0.000000000000e+00 0.000000000000e+00 0.000000000000e+00
  0.000000000000e+00 0.000000000000e+00 0.000000000000e+00
  0.000000000000e+00 0.000000000000e+00 0.000000000000e+00
  0.000000000000e+00 0.000000000000e+00 0.000000000000e+00
  0.000000000000e+00 0.000000000000e+00 0.000000000000e+00
  0.000000000000e+00 0.000000000000e+00 0.000000000000e+00
  0.000000000000e+00 0.000000000000e+00 0.000000000000e+00
  0.000000000000e+00 0.000000000000e+00 0.000000000000e+00
  0.000000000000e+00 0.000000000000e+00 0.000000000000e+00
  0.000000000000e+00 0.000000000000e+00 0.000000000000e+00
  0.000000000000e+00 0.000000000000e+00 0.000000000000e+00
  0.000000000000e+00 0.000000000000e+00 0.000000000000e+00
  0.000000000000e+00 0.000000000000e+00 0.000000000000e+00
  0.000000000000e+00 0.000000000000e+00 0.000000000000e+00
  0.000000000000e+00 0.000000000000e+00 0.000000000000e+00
  0.000000000000e+00 0.000000000000e+00 0.000000000000e+00
  0.000000000000e+00 0.000000000000e+00 0.000000000000e+00
  0.000000000000e+00 0.000000000000e+00 0.000000000000e+00
  0.000000000000e+00 0.000000000000e+00 0.000000000000e+00
  0.000000000000e+00 0.000000000000e+00 0.000000000000e+00
  0.000000000000e+00 0.000000000000e+00 0.000000000000e+00
  0.000000000000e+00 0.000000000000e+00 0.000000000000e+00
  0.000000000000e+00 0.000000000000e+00 0.000000000000e+00
  0.000000000000e+00 0.000000000000e+00 0.000000000000e+00
  2.449392371934e-03 -2.449392371934e-03 0.000000000000e+00
  1.351871160728e-03 -9.419856071875e-03 0.000000000000e+00
  -7.929905048964e-04 -2.192226747932e-02 0.000000000000e+00
  -3.874645060473e-03 -4.150969338555e-02 0.000000000000e+00
  -7.707143048649e-03 -6.707512004954e-02 0.000000000000e+00
  -1.202060146546e-02 -9.492121720353e-02 0.000000000000e+00
  -1.647404270934e-02 -1.198101874662e-01 0.000000000000e+00
  -2.069997523348e-02 -1.367316394822e-01 0.000000000000e+00
  -2.437685115542e-02 -1.427280343046e-01 0.000000000000e+00
  -2.730781423996e-02 -1.380309263603e-01 0.000000000000e+00
  -2.947414089196e-02 -1.260544411801e-01 0.000000000000e+00
  -3.103719928248e-02 -1.122647146606e-01 0.000000000000e+00
  -3.228165783366e-02 -1.023292760139e-01 0.000000000000e+00
  -3.351512247013e-02 -1.001314051389e-01 0.000000000000e+00
  -3.495499232286e-02 -1.062557077571e-01 0.000000000000e+00
  -3.663746590943e-02 -1.174659302103e-01 0.000000000000e+00
  -3.837748818844e-02 -1.274672085152e-01 0.000000000000e+00
  -3.979504242009e-02 -1.288287705604e-01 0.000000000000e+00
  -4.040500620683e-02 -1.154472450938e-01 0.000000000000e+00
  -3.974800580331e-02 -8.462819466004e-02 0.000000000000e+00
  -3.752428352522e-02 -3.799470253220e-02 0.000000000000e+00
  -3.368881157013e-02 1.903067459825e-02 0.000000000000e+00
  -2.847743916316e-02 7.880436344864e-02 0.000000000000e+00
  -2.235703098059e-02 1.334130848477e-01 0.000000000000e+00
  -1.591748929028e-02 1.764178150466e-01 0.000000000000e+00
  -9.740097325189e-03 2.041307320254e-01 0.000000000000e+00
  -4.280029698839e-03 2.163563074197e-01 0.000000000000e+00
  2.070136638043e-04 2.164561656179e-01 0.000000000000e+00
  3.678328703326e-03 2.104746128407e-01 0.000000000000e+00
  6.258808917333e-03 2.052249973245e-01 0.000000000000e+00
  8.154412417730e-03 2.057718086356e-01 0.000000000000e+00
  9.556244276030e-03 2.133165510921e-01 0.000000000000e+00
  1.057226956820e-02 2.245928609928e-01 0.000000000000e+00
  1.121453177232e-02 2.332574780743e-01 0.000000000000e+00
  1.144652312343e-02 2.327240737441e-01 0.000000000000e+00
  1.126746728546e-02 2.190799807500e-01 0.000000000000e+00
  1.079208182994e-02 1.926830624475e-01 0.000000000000e+00
  1.028597295151e-02 1.577799121362e-01 0.000000000000e+00
  1.013715367012e-02 1.205345356223e-01 0.000000000000e+00
  1.077211206028e-02 8.658037659001e-02 0.000000000000e+00
  1.254654431036e-02 5.925141614747e-02 0.000000000000e+00
  1.564757872780e-02 3.910345683196e-02 0.000000000000e+00
  2.003572816286e-02 2.460999382537e-02 0.000000000000e+00
  2.543744726814e-02 1.342383445486e-02 0.000000000000e+00
  3.138231240154e-02 3.522189150853e-03 0.000000000000e+00
  3.726982874482e-02 -6.186471427777e-03 0.000000000000e+00
  4.245134400714e-02 -1.584994299413e-02 0.000000000000e+00
  4.631774838758e-02 -2.504152026154e-02 0.000000000000e+00
  4.838628774769e-02 -3.320919232054e-02 0.000000000000e+00
  4.837651351647e-02 -3.997070449278e-02 0.000000000000e+00
  4.626001705612e-02 -4.517194380239e-02 0.000000000000e+00
  4.226885554111e-02 -4.877978863075e-02 0.000000000000e+00
  3.685734090162e-02 -5.076777898750e-02 0.000000000000e+00
  3.062664918502e-02 -5.114103988754e-02 0.000000000000e+00
  2.423209303611e-02 -5.015232922873e-02 0.000000000000e+00
  1.829283844575e-02 -4.863223761109e-02 0.000000000000e+00
  1.331583848606e-02 -4.824305104805e-02 0.000000000000e+00
  9.637978229743e-03 -5.141284816773e-02 0.000000000000e+00
  7.388928846610e-03 -6.076726771998e-02 0.000000000000e+00
  6.480809260427e-03 -7.809004866600e-02 0.000000000000e+00
  6.632907840067e-03 -1.031650207884e-01 0.000000000000e+00
  7.434749313576e-03 -1.331098891048e-01 0.000000000000e+00
  8.438609522233e-03 -1.627784274712e-01 0.000000000000e+00
  9.258751250474e-03 -1.863730763164e-01 0.000000000000e+00
  9.647032999579e-03 -1.997292761429e-01 0.000000000000e+00
  9.519021925598e-03 -2.021988999432e-01 0.000000000000e+00
  8.921783073677e-03 -1.970727829722e-01 0.000000000000e+00
  7.957744003738e-03 -1.901485529596e-01 0.000000000000e+00
  6.697471209690e-03 -1.870409917324e-01 0.000000000000e+00
  5.118201043586e-03 -1.905486815465e-01 0.000000000000e+00
  3.092478465442e-03 -1.993630490574e-01 0.000000000000e+00
  4.293371421811e-04 -2.086451381737e-01 0.000000000000e+00
  -3.049603825524e-03 -2.120052172145e-01 0.000000000000e+00
  -7.426907210227e-03 -2.038305236151e-01 0.000000000000e+00
  -1.262608059659e-02 -1.810085939021e-01 0.000000000000e+00
  -1.838802850976e-02 -1.436594869067e-01 0.000000000000e+00
  -2.429656656859e-02 -9.501742687930e-02 0.000000000000e+00
  -2.985043375314e-02 -4.075567694329e-02 0.000000000000e+00
  -3.456612954949e-02 1.209885655920e-02 0.000000000000e+00
  -3.808438311348e-02 5.663070052578e-02 0.000000000000e+00
  -4.024844433536e-02 8.770854573858e-02 0.000000000000e+00
  -4.112893455054e-02 1.033975682548e-01 0.000000000000e+00
  -4.098676672584e-02 1.055108711649e-01 0.000000000000e+00
  -4.018595458046e-02 9.894718236446e-02 0.000000000000e+00
  -3.908352410477e-02 8.999032859099e-02 0.000000000000e+00
  -3.792914599431e-02 8.421951714944e-02 0.000000000000e+00
  -3.680272654747e-02 8.480851192291e-02 0.000000000000e+00
  -3.560711121985e-02 9.175223887371e-02 0.000000000000e+00
  -3.411794324945e-02 1.021615136896e-01 0.000000000000e+00
  -3.207564124982e-02 1.114358298816e-01 0.000000000000e+00
  -2.928948229214e-02 1.149285007034e-01 0.000000000000e+00
  -2.571785683836e-02 1.096038170385e-01 0.000000000000e+00
  -2.149757473348e-02 9.513853032909e-02 0.000000000000e+00
  -1.691672131931e-02 7.403431961984e-02 0.000000000000e+00
  -1.234901318199e-02 5.065971836277e-02 0.000000000000e+00
  -8.179655132714e-03 2.961515956652e-02 0.000000000000e+00
  -4.747830683353e-03 1.412664722986e-02 0.000000000000e+00
  -2.315295327670e-03 5.100405185228e-03 0.000000000000e+00
  -1.055996453469e-03 1.077861827698e-03 0.000000000000e+00
  0.000000000000e+00 0.000000000000e+00 0.000000000000e+00
  0.000000000000e+00 0.000000000000e+00 0.000000000000e+00
  9.419856071875e-03 -1.351871160728e-03 0.000000000000e+00
  6.175702176148e-03 -6.175702176149e-03 0.000000000000e+00
  -1.582887239524e-04 -1.668756880932e-02 0.000000000000e+00
  -9.245069234189e-03 -3.457595698973e-02 0.000000000000e+00
  -2.052389201230e-02 -5.889753567907e-02 0.000000000000e+00
  -3.318983516828e-02 -8.611940000121e-02 0.000000000000e+00
  -4.623613206617e-02 -1.111122665268e-01 0.000000000000e+00
  -5.858759585575e-02 -1.288521641079e-01 0.000000000000e+00
  -6.931197137178e-02 -1.362062582408e-01 0.000000000000e+00
  -7.784569593741e-02 -1.330880147738e-01 0.000000000000e+00
  -8.414338971887e-02 -1.225333323331e-01 0.000000000000e+00
  -8.867783203598e-02 -1.096883228000e-01 0.000000000000e+00
  -9.227254074490e-02 -1.000665006144e-01 0.000000000000e+00
  -9.581304362123e-02 -9.762021302556e-02 0.000000000000e+00
  -9.992574016358e-02 -1.032143334753e-01 0.000000000000e+00
  -1.047225339188e-01 -1.140280371503e-01 0.000000000000e+00
  -1.096900045459e-01 -1.241976086691e-01 0.000000000000e+00
  -1.137637089615e-01 -1.266071117591e-01 0.000000000000e+00
  -1.155784831156e-01 -1.152441659543e-01 0.000000000000e+00
  -1.138324408410e-01 -8.723431647757e-02 0.000000000000e+00
  -1.076608974840e-01 -4.378384634980e-02 0.000000000000e+00
  -9.690580833369e-02 1.022925731044e-02 0.000000000000e+00
  -8.219670785049e-02 6.768530784627e-02 0.000000000000e+00
  -6.482121475915e-02 1.210362391762e-01 0.000000000000e+00
  -4.643099747212e-02 1.639649017408e-01 0.000000000000e+00
  -2.867551938278e-02 1.926507752768e-01 0.000000000000e+00
  -1.286773476160e-02 2.065684119208e-01 0.000000000000e+00
  2.327778932057e-04 2.086565050994e-01 0.000000000000e+00
  1.047082856315e-02 2.045649076498e-01 0.000000000000e+00
  1.817818443964e-02 2.008468664249e-01 0.000000000000e+00
  2.393388225718e-02 2.024986382173e-01 0.000000000000e+00
  2.829070033071e-02 2.108310715788e-01 0.000000000000e+00
  3.157412884766e-02 2.227788866974e-01 0.000000000000e+00
  3.383635504486e-02 2.321669639692e-01 0.000000000000e+00
  3.498237038806e-02 2.324365811565e-01 0.000000000000e+00
  3.500502603254e-02 2.195238735340e-01 0.000000000000e+00
  3.421209468312e-02 1.935074864735e-01 0.000000000000e+00
  3.333085445877e-02 1.583428372212e-01 0.000000000000e+00
  3.343249392852e-02 1.200187903619e-01 0.000000000000e+00
  3.569840995660e-02 8.419524745162e-02 0.000000000000e+00
  4.111335270443e-02 5.444717031557e-02 0.000000000000e+00
  5.019048800690e-02 3.172953298128e-02 0.000000000000e+00
  6.280910897613e-02 1.497714731964e-02 0.000000000000e+00
  7.819562302426e-02 2.268447865436e-03 0.000000000000e+00
  9.502979218702e-02 -8.101458488895e-03 0.000000000000e+00
  1.116326642428e-01 -1.705321211472e-02 0.000000000000e+00
  1.261948826728e-01 -2.472693592653e-02 0.000000000000e+00
  1.370198888979e-01 -3.085593786723e-02 0.000000000000e+00
  1.427645467804e-01 -3.520797190169e-02 0.000000000000e+00
  1.426501253652e-01 -3.784772922693e-02 0.000000000000e+00
  1.366007676147e-01 -3.912906484069e-02 0.000000000000e+00
  1.252668877237e-01 -3.949762619329e-02 0.000000000000e+00
  1.099184936394e-01 -3.929003273073e-02 0.000000000000e+00
  9.223527624480e-02 -3.870487708216e-02 0.000000000000e+00
  7.404939155558e-02 -3.800805125932e-02 0.000000000000e+00
  5.709594874849e-02 -3.788381825450e-02 0.000000000000e+00
  4.280273288843e-02 -3.972125465820e-02 0.000000000000e+00
  3.212846714304e-02 -4.558251862564e-02 0.000000000000e+00
  2.545559298670e-02 -5.767567378484e-02 0.000000000000e+00
  2.255553522653e-02 -7.737346530715e-02 0.000000000000e+00
  2.265218625935e-02 -1.041303538014e-01 0.000000000000e+00
  2.459568813622e-02 -1.348898994736e-01 0.000000000000e+00
  2.712290083973e-02 -1.645294900371e-01 0.000000000000e+00
  2.913978718845e-02 -1.874590418429e-01 0.000000000000e+00
  2.993793194652e-02 -1.998297371336e-01 0.000000000000e+00
  2.927013992515e-02 -2.013026358634e-01 0.000000000000e+00
  2.725963736675e-02 -1.953613056454e-01 0.000000000000e+00
  2.418470667340e-02 -1.878210605252e-01 0.000000000000e+00
  2.023340015935e-02 -1.841569048599e-01 0.000000000000e+00
  1.533355333965e-02 -1.869536514339e-01 0.000000000000e+00
  9.126256124888e-03 -1.947250593774e-01 0.000000000000e+00
  1.087260491583e-03 -2.025809908972e-01 0.000000000000e+00
  -9.256523588994e-03 -2.042466394427e-01 0.000000000000e+00
  -2.209601742338e-02 -1.943723041678e-01 0.000000000000e+00
  -3.717087206103e-02 -1.701927853254e-01 0.000000000000e+00
  -5.371503480295e-02 -1.321691848283e-01 0.000000000000e+00
  -7.053893443853e-02 -8.377529126329e-02 0.000000000000e+00
  -8.623687182039e-02 -3.074600799289e-02 0.000000000000e+00
  -9.947359430430e-02 2.004160588906e-02 0.000000000000e+00
  -1.092748981681e-01 6.200750862375e-02 0.000000000000e+00
  -1.152367067326e-01 9.045760742698e-02 0.000000000000e+00
  -1.175860445633e-01 1.038783346123e-01 0.000000000000e+00
  -1.170728176246e-01 1.043747100440e-01 0.000000000000e+00
  -1.147255940422e-01 9.693530775751e-02 0.000000000000e+00
  -1.115455724401e-01 8.771975112014e-02 0.000000000000e+00
  -1.082275829144e-01 8.201772698412e-02 0.000000000000e+00
  -1.049859079709e-01 8.264220769789e-02 0.000000000000e+00
  -1.015335555765e-01 8.927057537673e-02 0.000000000000e+00
  -9.722249614081e-02 9.884294978049e-02 0.000000000000e+00
  -9.130427334688e-02 1.067938689971e-01 0.000000000000e+00
  -8.322696258815e-02 1.087069918714e-01 0.000000000000e+00
  -7.286621142322e-02 1.018929492518e-01 0.000000000000e+00
  -6.061202427146e-02 8.637492885920e-02 0.000000000000e+00
  -4.729404269613e-02 6.489908610022e-02 0.000000000000e+00
  -3.399513368285e-02 4.192833473180e-02 0.000000000000e+00
  -2.183823366492e-02 2.202028513028e-02 0.000000000000e+00
  -1.181849040117e-02 8.269953952984e-03 0.000000000000e+00
  -4.708824245930e-03 1.414896951177e-03 0.000000000000e+00
  -1.025736990976e-03 -1.790160674064e-04 0.000000000000e+00
  0.000000000000e+00 0.000000000000e+00 0.000000000000e+00
  0.000000000000e+00 0.000000000000e+00 0.000000000000e+00
  2.192226747932e-02 7.929905048966e-04 0.000000000000e+00
  1.668756880932e-02 1.582887239522e-04 0.000000000000e+00
  6.485785905767e-03 -6.485785905768e-03 0.000000000000e+00
  -8.107663445880e-03 -2.109751003140e-02 0.000000000000e+00
  -2.615462902608e-02 -4.305019427910e-02 0.000000000000e+00
  -4.633584029597e-02 -6.911958697532e-02 0.000000000000e+00
  -6.703207949566e-02 -9.436954345510e-02 0.000000000000e+00
  -8.654354209560e-02 -1.137319607901e-01 0.000000000000e+00
  -1.034213791988e-01 -1.237242489394e-01 0.000000000000e+00
  -1.168104082412e-01 -1.236472704672e-01 0.000000000000e+00
  -1.266652236392e-01 -1.158215674604e-01 0.000000000000e+00
  -1.337338259357e-01 -1.047970430591e-01 0.000000000000e+00
  -1.392901832764e-01 -9.580671430571e-02 0.000000000000e+00
  -1.446930253838e-01 -9.293665435056e-02 0.000000000000e+00
  -1.509074498315e-01 -9.757077116036e-02 0.000000000000e+00
  -1.581325011110e-01 -1.076497544304e-01 0.000000000000e+00
  -1.656433134230e-01 -1.180976084500e-01 0.000000000000e+00
  -1.718992509409e-01 -1.223774700448e-01 0.000000000000e+00
  -1.749012636185e-01 -1.146570208370e-01 0.000000000000e+00
  -1.727113936289e-01 -9.175737385900e-02 0.000000000000e+00
  -1.639922800875e-01 -5.415144586679e-02 0.000000000000e+00
  -1.484086093748e-01 -5.741903035559e-03 0.000000000000e+00
  -1.267701671873e-01 4.730892552155e-02 0.000000000000e+00
  -1.008772734774e-01 9.814423469972e-02 0.000000000000e+00
  -7.312152662786e-02 1.407109420807e-01 0.000000000000e+00
  -4.596255275397e-02 1.709902829737e-01 0.000000000000e+00
  -2.142610775276e-02 1.878846746016e-01 0.000000000000e+00
  -7.527275376601e-04 1.935663495488e-01 0.000000000000e+00
  1.571868543158e-02 1.929455995613e-01 0.000000000000e+00
  2.841187419145e-02 1.920656298773e-01 0.000000000000e+00
  3.817413728986e-02 1.957619138496e-01 0.000000000000e+00
  4.586372437915e-02 2.055213907851e-01 0.000000000000e+00
  5.202656164481e-02 2.186423017114e-01 0.000000000000e+00
  5.679638949569e-02 2.292714949128e-01 0.000000000000e+00
  6.005643232566e-02 2.309259920504e-01 0.000000000000e+00
  6.177725433019e-02 2.192909850101e-01 0.000000000000e+00
  6.235832450100e-02 1.939522362085e-01 0.000000000000e+00
  6.279787712541e-02 1.583397751389e-01 0.000000000000e+00
  6.459733696317e-02 1.181207532183e-01 0.000000000000e+00
  6.942719890408e-02 7.899750674689e-02 0.000000000000e+00
  7.867941941245e-02 4.497774793411e-02 0.000000000000e+00
  9.306493269865e-02 1.773630700201e-02 0.000000000000e+00
  1.123788191854e-01 -2.962133866448e-03 0.000000000000e+00
  1.354782657738e-01 -1.827823123359e-02 0.000000000000e+00
  1.604432269335e-01 -2.935390931026e-02 0.000000000000e+00
  1.848515389608e-01 -3.681194494373e-02 0.000000000000e+00
  2.061063181061e-01 -4.078520023816e-02 0.000000000000e+00
  2.217804741304e-01 -4.129683540346e-02 0.000000000000e+00
  2.299569147543e-01 -3.868817254026e-02 0.000000000000e+00
  2.295282645605e-01 -3.382445675104e-02 0.000000000000e+00
  2.203947207376e-01 -2.796943564237e-02 0.000000000000e+00
  2.034976822154e-01 -2.242633701621e-02 0.000000000000e+00
  1.806670661744e-01 -1.818231195472e-02 0.000000000000e+00
  1.543219449490e-01 -1.578425952620e-02 0.000000000000e+00
  1.271061863969e-01 -1.552702594814e-02 0.000000000000e+00
  1.015372990868e-01 -1.784251387280e-02 0.000000000000e+00
  7.970969697257e-02 -2.364174150343e-02 0.000000000000e+00
  6.306036849920e-02 -3.433843798094e-02 0.000000000000e+00
  5.220297749765e-02 -5.138948964821e-02 0.000000000000e+00
  4.685962266210e-02 -7.541623716720e-02 0.000000000000e+00
  4.593578854587e-02 -1.052603991142e-01 0.000000000000e+00
  4.776458682653e-02 -1.375321545139e-01 0.000000000000e+00
  5.048946275721e-02 -1.671393237730e-01 0.000000000000e+00
  5.248734466715e-02 -1.888639764638e-01 0.000000000000e+00
  5.269604333356e-02 -1.994316460019e-01 0.000000000000e+00
  5.072932560596e-02 -1.990662172868e-01 0.000000000000e+00
  4.674126110051e-02 -1.915991571825e-01 0.000000000000e+00
  4.110619250952e-02 -1.828732097177e-01 0.000000000000e+00
  3.406057250280e-02 -1.781078291542e-01 0.000000000000e+00
  2.546551006223e-02 -1.795078178832e-01 0.000000000000e+00
  1.478789152644e-02 -1.852859771794e-01 0.000000000000e+00
  1.298061952540e-03 -1.904912478889e-01 0.000000000000e+00
  -1.560453108871e-02 -1.890900053296e-01 0.000000000000e+00
  -3.606369057678e-02 -1.762302849586e-01 0.000000000000e+00
  -5.954869035317e-02 -1.497749501207e-01 0.000000000000e+00
  -8.481443231469e-02 -1.107771153297e-01 0.000000000000e+00
  -1.100567723808e-01 -6.310112106028e-02 0.000000000000e+00
  -1.332323342727e-01 -1.254667892210e-02 0.000000000000e+00
  -1.524691164437e-01 3.431578147316e-02 0.000000000000e+00
  -1.664623714846e-01 7.152789194440e-02 0.000000000000e+00
  -1.747435270972e-01 9.518018828337e-02 0.000000000000e+00
  -1.777395104727e-01 1.045010749622e-01 0.000000000000e+00
  -1.766009349851e-01 1.021001672678e-01 0.000000000000e+00
  -1.728477959334e-01 9.310948789956e-02 0.000000000000e+00
  -1.679337196035e-01 8.345147304604e-02 0.000000000000e+00
  -1.628493031311e-01 7.788359906019e-02 0.000000000000e+00
  -1.578727800798e-01 7.855813762707e-02 0.000000000000e+00
  -1.525399740333e-01 8.456948700666e-02 0.000000000000e+00
  -1.458498256502e-01 9.254283033173e-02 0.000000000000e+00
  -1.366513801333e-01 9.797732013510e-02 0.000000000000e+00
  -1.240906516912e-01 9.688550153251e-02 0.000000000000e+00
  -1.079642756768e-01 8.722731241140e-02 0.000000000000e+00
  -8.885925894418e-02 6.968136181520e-02 0.000000000000e+00
  -6.804836117176e-02 4.746377379647e-02 0.000000000000e+00
  -4.721203760346e-02 2.522841445398e-02 0.000000000000e+00
  -2.811288531499e-02 7.464153101705e-03 0.000000000000e+00
  -1.233188735688e-02 -2.974655240301e-03 0.000000000000e+00
  -1.111846072507e-03 -5.670201295150e-03 0.000000000000e+00
  4.708035918378e-03 -2.596887066919e-03 0.000000000000e+00
  0.000000000000e+00 0.000000000000e+00 0.000000000000e+00
  0.000000000000e+00 0.000000000000e+00 0.000000000000e+00
  4.150969338555e-02 3.874645060473e-03 0.000000000000e+00
  3.457595698973e-02 9.245069234190e-03 0.000000000000e+00
  2.109751003140e-02 8.107663445879e-03 0.000000000000e+00
  1.894048431122e-03 -1.894048431122e-03 0.000000000000e+00
  -2.173312750737e-02 -2.057951436068e-02 0.000000000000e+00
  -4.800369141179e-02 -4.513849171942e-02 0.000000000000e+00
  -7.478765311211e-02 -7.087043781098e-02 0.000000000000e+00
  -9.990053629423e-02 -9.260672065218e-02 0.000000000000e+00
  -1.215228990432e-01 -1.063492892251e-01 0.000000000000e+00
  -1.386147362405e-01 -1.105413639417e-01 0.000000000000e+00
  -1.511584599299e-01 -1.065289348986e-01 0.000000000000e+00
  -1.601116912059e-01 -9.806784204827e-02 0.000000000000e+00
  -1.670618372562e-01 -9.002941192552e-02 0.000000000000e+00
  -1.736879294768e-01 -8.668502240277e-02 0.000000000000e+00
  -1.811969503807e-01 -9.009895775668e-02 0.000000000000e+00
  -1.898971370114e-01 -9.919632992387e-02 0.000000000000e+00
  -1.990207410128e-01 -1.099166166431e-01 0.000000000000e+00
  -2.068417763732e-01 -1.164814889734e-01 0.000000000000e+00
  -2.110649805828e-01 -1.133277850211e-01 0.000000000000e+00
  -2.093954182729e-01 -9.694604197437e-02 0.000000000000e+00
  -2.001445838958e-01 -6.693272566991e-02 0.000000000000e+00