# vtk DataFile Version 3.0
Karman Output
ASCII
DATASET RECTILINEAR_GRID
DIMENSIONS 101 101 1
X_COORDINATES 101 float
   0.000000000000e+00   9.900990099010e-03   1.980198019802e-02   2.970297029703e-02   3.960396039604e-02   4.950495049505e-02   5.940594059406e-02   6.930693069307e-02   7.920792079208e-02   8.910891089109e-02   9.900990099010e-02   1.089108910891e-01   1.188118811881e-01   1.287128712871e-01   1.386138613861e-01   1.485148514851e-01   1.584158415842e-01   1.683168316832e-01   1.782178217822e-01   1.881188118812e-01   1.980198019802e-01   2.079207920792e-01   2.178217821782e-01   2.277227722772e-01   2.376237623762e-01   2.475247524752e-01   2.574257425743e-01   2.673267326733e-01   2.772277227723e-01   2.871287128713e-01   2.970297029703e-01   3.069306930693e-01   3.168316831683e-01   3.267326732673e-01   3.366336633663e-01   3.465346534653e-01   3.564356435644e-01   3.663366336634e-01   3.762376237624e-01   3.861386138614e-01   3.960396039604e-01   4.059405940594e-01   4.158415841584e-01   4.257425742574e-01   4.356435643564e-01   4.455445544554e-01   4.554455445545e-01   4.653465346535e-01   4.752475247525e-01   4.851485148515e-01   4.950495049505e-01   5.049504950495e-01   5.148514851485e-01   5.247524752475e-01   5.346534653465e-01   5.445544554455e-01   5.544554455446e-01   5.643564356436e-01   5.742574257426e-01   5.841584158416e-01   5.940594059406e-01   6.039603960396e-01   6.138613861386e-01   6.237623762376e-01   6.336633663366e-01   6.435643564356e-01   6.534653465347e-01   6.633663366337e-01   6.732673267327e-01   6.831683168317e-01   6.930693069307e-01   7.029702970297e-01   7.128712871287e-01   7.227722772277e-01   7.326732673267e-01   7.425742574257e-01   7.524752475248e-01   7.623762376238e-01   7.722772277228e-01   7.821782178218e-01   7.920792079208e-01   8.019801980198e-01   8.118811881188e-01   8.217821782178e-01   8.316831683168e-01   8.415841584158e-01   8.514851485149e-01   8.613861386139e-01   8.712871287129e-01   8.811881188119e-01   8.910891089109e-01   9.009900990099e-01   9.108910891089e-01   9.207920792079e-01   9.306930693069e-01   9.405940594059e-01   9.504950495050e-01   9.603960396040e-01   9.702970297030e-01   9.801980198020e-01   9.900990099010e-01
Y_COORDINATES 101 float
   0.000000000000e+00   9.900990099010e-03   1.980198019802e-02   2.970297029703e-02   3.960396039604e-02   4.950495049505e-02   5.940594059406e-02   6.930693069307e-02   7.920792079208e-02   8.910891089109e-02   9.900990099010e-02   1.089108910891e-01   1.188118811881e-01   1.287128712871e-01   1.386138613861e-01   1.485148514851e-01   1.584158415842e-01   1.683168316832e-01   1.782178217822e-01   1.881188118812e-01   1.980198019802e-01   2.079207920792e-01   2.178217821782e-01   2.277227722772e-01   2.376237623762e-01   2.475247524752e-01   2.574257425743e-01   2.673267326733e-01   2.772277227723e-01   2.871287128713e-01   2.970297029703e-01   3.069306930693e-01   3.168316831683e-01   3.267326732673e-01   3.366336633663e-01   3.465346534653e-01   3.564356435644e-01   3.663366336634e-01   3.762376237624e-01   3.861386138614e-01   3.960396039604e-01   4.059405940594e-01   4.158415841584e-01   4.257425742574e-01   4.356435643564e-01   4.455445544554e-01   4.554455445545e-01   4.653465346535e-01   4.752475247525e-01   4.851485148515e-01   4.950495049505e-01   5.049504950495e-01   5.148514851485e-01   5.247524752475e-01   5.346534653465e-01   5.445544554455e-01   5.544554455446e-01   5.643564356436e-01   5.742574257426e-01   5.841584158416e-01   5.940594059406e-01   6.039603960396e-01   6.138613861386e-01   6.237623762376e-01   6.336633663366e-01   6.435643564356e-01   6.534653465347e-01   6.633663366337e-01   6.732673267327e-01   6.831683168317e-01   6.930693069307e-01   7.029702970297e-01   7.128712871287e-01   7.227722772277e-01   7.326732673267e-01   7.425742574257e-01   7.524752475248e-01   7.623762376238e-01   7.722772277228e-01   7.821782178218e-01   7.920792079208e-01   8.019801980198e-01   8.118811881188e-01   8.217821782178e-01   8.316831683168e-01   8.415841584158e-01   8.514851485149e-01   8.613861386139e-01   8.712871287129e-01   8.811881188119e-01   8.910891089109e-01   9.009900990099e-01   9.108910891089e-01   9.207920792079e-01   9.306930693069e-01   9.405940594059e-01   9.504950495050e-01   9.603960396040e-01   9.702970297030e-01   9.801980198020e-01   9.900990099010e-01
Z_COORDINATES 1 float
  0.000000000000e+00
POINT_DATA 10201
VECTORS E_field float
  0.000000000000e+00 0.000000000000e+00 0.000000000000e+00
  0.000000000000e+00 0.000000000000e+00 0.000000000000e+00
  0.000000000000e+00 0.000000000000e+00 0.000000000000e+00
  0.000000000000e+00 0.000000000000e+00 0.000000000000e+00
  0.000000000000e+00 0.000000000000e+00 0.000000000000e+00
  0.000000000000e+00 0.000000000000e+00 0.000000000000e+00
  0.000000000000e+00 0.000000000000e+00 0.000000000000e+00
  0.000000000000e+00 0.000000000000e+00 0.000000000000e+00
  0.000000000000e+00 0.000000000000e+00 0.000000000000e+00
  0.000000000000e+00 0.000000000000e+00 0.000000000000e+00
  0.000000000000e+00 0.000000000000e+00 0.000000000000e+00
  0.000000000000e+00 0.000000000000e+00 0.000000000000e+00
  0.000000000000e+00 0.000000000000e+00 0.000000000000e+00
  0.000000000000e+00 0.000000000000e+00 0.000000000000e+00
  0.000000000000e+00 0.000000000000e+00 0.000000000000e+00
  0.000000000000e+00 0.000000000000e+00 0.000000000000e+00
  0.000000000000e+00 0.000000000000e+00 0.000000000000e+00
  0.000000000000e+00 0.000000000000e+00 0.000000000000e+00
  0.000000000000e+00 0.000000000000e+00 0.000000000000e+00
  0.000000000000e+00 0.000000000000e+00 0.000000000000e+00
  0.000000000000e+00 0.000000000000e+00 0.000000000000e+00
  0.000000000000e+00 0.000000000000e+00 0.000000000000e+00
  0.000000000000e+00 0.000000000000e+00 0.000000000000e+00
  0.000000000000e+00 0.000000000000e+00 0.000000000000e+00
  0.000000000000e+00 0.000000000000e+00 0.000000000000e+00
  0.000000000000e+00 0.000000000000e+00 0.000000000000e+00
  0.000000000000e+00 0.000000000000e+00 0.000000000000e+00
  0.000000000000e+00 0.000000000000e+00 0.000000000000e+00
  0.000000000000e+00 0.000000000000e+00 0.000000000000e+00
  0.000000000000e+00 0.000000000000e+00 0.000000000000e+00
  0.000000000000e+00 0.000000000000e+00 0.000000000000e+00
  0.000000000000e+00 0.000000000000e+00 0.000000000000e+00
  0.000000000000e+00 0.000000000000e+00 0.000000000000e+00
  0.000000000000e+00 0.000000000000e+00 0.000000000000e+00
  0.000000000000e+00 0.000000000000e+00 0.000000000000e+00
  0.000000000000e+00 0.000000000000e+00 0.000000000000e+00
  0.000000000000e+00 0.000000000000e+00 0.000000000000e+00
  0.000000000000e+00 0.000000000000e+00 0.000000000000e+00
  0.000000000000e+00 0.000000000000e+00 0.000000000000e+00
  0.000000000000e+00 0.000000000000e+00 0.000000000000e+00
  0.000000000000e+00 0.000000000000e+00 0.000000000000e+00
  0.000000000000e+00 0.000000000000e+00 0.000000000000e+00
  0.000000000000e+00 0.000000000000e+00 0.000000000000e+00
  0.000000000000e+00 0.000000000000e+00 0.000000000000e+00
  0.000000000000e+00 0.000000000000e+00 0.000000000000e+00
  0.000000000000e+00 0.000000000000e+00 0.000000000000e+00
  0.000000000000e+00 0.000000000000e+00 0.000000000000e+00
  0.000000000000e+00 0.000000000000e+00 0.000000000000e+00
  0.000000000000e+00 0.000000000000e+00 0.000000000000e+00
  0.000000000000e+00 0.000000000000e+00 0.000000000000e+00
  0.000000000000e+00 0.000000000000e+00 0.000000000000e+00
  0.000000000000e+00 0.000000000000e+00 0.000000000000e+00
  0.000000000000e+00 0.000000000000e+00 0.000000000000e+00
  0.000000000000e+00 0.000000000000e+00 0.000000000000e+00
  0.000000000000e+00 0.000000000000e+00 0.000000000000e+00
  0.000000000000e+00 0.000000000000e+00 0.000000000000e+00
  0.000000000000e+00 0.000000000000e+00 0.000000000000e+00
  0.000000000000e+00 0.000000000000e+00 0.000000000000e+00
  0.000000000000e+00 0.000000000000e+00 0.000000000000e+00
  0.000000000000e+00 0.000000000000e+00 0.000000000000e+00
  0.000000000000e+00 0.000000000000e+00 0.000000000000e+00
  0.000000000000e+00 0.000000000000e+00 0.000000000000e+00
  0.000000000000e+00 0.000000000000e+00 0.000000000000e+00
  0.000000000000e+00 0.000000000000e+00 0.000000000000e+00
  0.000000000000e+00 0.000000000000e+00 0.000000000000e+00
  0.000000000000e+00 0.000000000000e+00 0.000000000000e+00
  0.000000000000e+00 0.000000000000e+00 0.000000000000e+00
  0.000000000000e+00 0.000000000000e+00 0.000000000000e+00
  0.000000000000e+00 0.000000000000e+00 0.000000000000e+00
  0.000000000000e+00 0.000000000000e+00 0.000000000000e+00
  0.000000000000e+00 0.000000000000e+00 0.000000000000e+00
  0.000000000000e+00 0.000000000000e+00 0.000000000000e+00
  0.000000000000e+00 0.000000000000e+00 0.000000000000e+00
  0.000000000000e+00 0.000000000000e+00 0.000000000000e+00
  0.000000000000e+00 0.000000000000e+00 0.000000000000e+00
  0.000000000000e+00 0.000000000000e+00 0.000000000000e+00
  0.000000000000e+00 0.000000000000e+00 0.000000000000e+00
  0.000000000000e+00 0.000000000000e+00 0.000000000000e+00
  0.000000000000e+00 0.000000000000e+00 0.000000000000e+00
  0.000000000000e+00 0.000000000000e+00 0.000000000000e+00
  0.000000000000e+00 0.000000000000e+00 0.000000000000e+00
  0.000000000000e+00 0.000000000000e+00 0.000000000000e+00
  0.000000000000e+00 0.000000000000e+00 0.000000000000e+00
  0.000000000000e+00 0.000000000000e+00 0.000000000000e+00
  0.000000000000e+00 0.000000000000e+00 0.000000000000e+00
  0.000000000000e+00 0.000000000000e+00 0.000000000000e+00
  0.000000000000e+00 0.000000000000e+00 0.000000000000e+00
  0.000000000000e+00 0.000000000000e+00 0.000000000000e+00
  0.000000000000e+00 0.000000000000e+00 0.000000000000e+00
  0.000000000000e+00 0.000000000000e+00 0.000000000000e+00
  0.000000000000e+00 0.000000000000e+00 0.000000000000e+00
  0.000000000000e+00 0.000000000000e+00 0.000000000000e+00
  0.000000000000e+00 0.000000000000e+00 0.000000000000e+00
  0.000000000000e+00 0.000000000000e+00 0.000000000000e+00
  0.000000000000e+00 0.000000000000e+00 0.000000000000e+00
  0.000000000000e+00 0.000000000000e+00 0.000000000000e+00
  0.000000000000e+00 0.000000000000e+00 0.000000000000e+00
  0.000000000000e+00 0.000000000000e+00 0.000000000000e+00
  0.000000000000e+00 0.000000000000e+00 0.000000000000e+00
  0.000000000000e+00 0.000000000000e+00 0.000000000000e+00
  0.000000000000e+00 0.000000000000e+00 0.000000000000e+00
  0.000000000000e+00 0.000000000000e+00 0.000000000000e+00
  -1.317153850150e-02 1.317153850150e-02 0.000000000000e+00
  -1.329954590879e-02 4.237141105937e-02 0.000000000000e+00
  -1.350613660235e-02 7.865052829816e-02 0.000000000000e+00
  -1.369324802135e-02 1.223517723728e-01 0.000000000000e+00
  -1.371791229067e-02 1.690955603195e-01 0.000000000000e+00
  -1.340196665251e-02 2.108105970359e-01 0.000000000000e+00
  -1.255067250961e-02 2.381915982040e-01 0.000000000000e+00
  -1.098310105203e-02 2.435377741948e-01 0.000000000000e+00
  -8.576305500016e-03 2.227976663575e-01 0.000000000000e+00
  -5.320853524893e-03 1.760902885057e-01 0.000000000000e+00
  -1.375786798132e-03 1.067796248922e-01 0.000000000000e+00
  2.899587078342e-03 1.989179454939e-02 0.000000000000e+00
  6.962766611454e-03 -7.914943334892e-02 0.000000000000e+00
  1.016802105398e-02 -1.849226472288e-01 0.000000000000e+00
  1.189848117144e-02 -2.917067748105e-01 0.000000000000e+00
  1.171363734643e-02 -3.931142648049e-01 0.000000000000e+00
  9.463740895206e-03 -4.822443510790e-01 0.000000000000e+00
  5.332945264543e-03 -5.524908655705e-01 0.000000000000e+00
  -1.999088714480e-04 -5.986867980308e-01 0.000000000000e+00
  -6.465142794629e-03 -6.181240524939e-01 0.000000000000e+00
  -1.273636975828e-02 -6.111492318160e-01 0.000000000000e+00
  -1.836014752991e-02 -5.812669165198e-01 0.000000000000e+00
  -2.285604133331e-02 -5.347725219655e-01 0.000000000000e+00
  -2.597263822253e-02 -4.798934522182e-01 0.000000000000e+00
  -2.769259346044e-02 -4.254109984134e-01 0.000000000000e+00
  -2.818662480313e-02 -3.789006954103e-01 0.000000000000e+00
  -2.772652955616e-02 -3.450125967701e-01 0.000000000000e+00
  -2.658035693753e-02 -3.244027731283e-01 0.000000000000e+00
  -2.492242213168e-02 -3.138215568346e-01 0.000000000000e+00
  -2.278890874452e-02 -3.074400687439e-01 0.000000000000e+00
  -2.009355678026e-02 -2.989504105302e-01 0.000000000000e+00
  -1.669341932469e-02 -2.836065945672e-01 0.000000000000e+00
  -1.247415350544e-02 -2.594009792278e-01 0.000000000000e+00
  -7.418713268896e-03 -2.269974146989e-01 0.000000000000e+00
  -1.635048933426e-03 -1.886505231533e-01 0.000000000000e+00
  4.660148312260e-03 -1.468109759803e-01 0.000000000000e+00
  1.118598228818e-02 -1.031977323817e-01 0.000000000000e+00
  1.764785726503e-02 -5.876720478646e-02 0.000000000000e+00
  2.377758711200e-02 -1.443039689300e-02 0.000000000000e+00
  2.935815552149e-02 2.809009538726e-02 0.000000000000e+00
  3.423631922571e-02 6.592954355066e-02 0.000000000000e+00
  3.832722090740e-02 9.557663700214e-02 0.000000000000e+00
  4.161184916098e-02 1.139593554798e-01 0.000000000000e+00
  4.412631673557e-02 1.195339770203e-01 0.000000000000e+00
  4.594423921102e-02 1.128185320382e-01 0.000000000000e+00
  4.715728508329e-02 9.614505452506e-02 0.000000000000e+00
  4.785958873262e-02 7.280041908945e-02 0.000000000000e+00
  4.813803480403e-02 4.597332402270e-02 0.000000000000e+00
  4.806614993596e-02 1.795505729762e-02 0.000000000000e+00
  4.769871062266e-02 -1.010722348521e-02 0.000000000000e+00
  4.706705036773e-02 -3.785669593489e-02 0.000000000000e+00
  4.617730929443e-02 -6.498506990269e-02 0.000000000000e+00
  4.501261028129e-02 -9.048282496007e-02 0.000000000000e+00
  4.353718849393e-02 -1.122621960044e-01 0.000000000000e+00
  4.169988885657e-02 -1.273706034436e-01 0.000000000000e+00
  3.943718224400e-02 -1.327589208264e-01 0.000000000000e+00
  3.667859469277e-02 -1.263175222916e-01 0.000000000000e+00
  3.335675164300e-02 -1.077291766996e-01 0.000000000000e+00
  2.942089088958e-02 -7.870006317728e-02 0.000000000000e+00
  2.485064219872e-02 -4.237858482134e-02 0.000000000000e+00
  1.966819035028e-02 -2.194141562451e-03 0.000000000000e+00
  1.394913777406e-02 3.928432566525e-02 0.000000000000e+00
  7.831378530098e-03 8.083127985341e-02 0.000000000000e+00
  1.516648553498e-03 1.221311613530e-01 0.000000000000e+00
  -4.744153554405e-03 1.627592377382e-01 0.000000000000e+00
  -1.068745463606e-02 2.013144353093e-01 0.000000000000e+00
  -1.608952999616e-02 2.353827346373e-01 0.000000000000e+00
  -2.081572898923e-02 2.625079919388e-01 0.000000000000e+00
  -2.484082665957e-02 2.817100947258e-01 0.000000000000e+00
  -2.822276061998e-02 2.946996834977e-01 0.000000000000e+00
  -3.103269625540e-02 3.060189271829e-01 0.000000000000e+00
  -3.326818818858e-02 3.218436570359e-01 0.000000000000e+00
  -3.478997948480e-02 3.478414408415e-01 0.000000000000e+00
  -3.531776140999e-02 3.869486564465e-01 0.000000000000e+00
  -3.449701658649e-02 4.379734440275e-01 0.000000000000e+00
  -3.201871132483e-02 4.955480001238e-01 0.000000000000e+00
  -2.775067422367e-02 5.513653001972e-01 0.000000000000e+00
  -2.183420337716e-02 5.961539560023e-01 0.000000000000e+00
  -1.471247745653e-02 6.216870772915e-01 0.000000000000e+00
  -7.080748679738e-03 6.222903449799e-01 0.000000000000e+00
  2.287162738992e-04 5.956290991291e-01 0.000000000000e+00
  6.398585605741e-03 5.427983355875e-01 0.000000000000e+00
  1.078028745024e-02 4.678263725368e-01 0.000000000000e+00
  1.301468768156e-02 3.767173744248e-01 0.000000000000e+00
  1.309037411907e-02 2.762361532188e-01 0.000000000000e+00
  1.132341684821e-02 1.727923450969e-01 0.000000000000e+00
  8.263307733903e-03 7.184631812454e-02 0.000000000000e+00
  4.553143011065e-03 -2.194893024888e-02 0.000000000000e+00
  7.875933617742e-04 -1.041133700977e-01 0.000000000000e+00
  -2.589456884440e-03 -1.698664908503e-01 0.000000000000e+00
  -5.325101035292e-03 -2.144684639490e-01 0.000000000000e+00
  -7.339972266969e-03 -2.345182073094e-01 0.000000000000e+00
  -8.677846510709e-03 -2.296275345339e-01 0.000000000000e+00
  -9.450884338148e-03 -2.034608946868e-01 0.000000000000e+00
  -9.798575333707e-03 -1.633225583102e-01 0.000000000000e+00
  -9.863501694674e-03 -1.181942008707e-01 0.000000000000e+00
  -9.777642252372e-03 -7.594346548766e-02 0.000000000000e+00
  -9.652201490265e-03 -4.087812835421e-02 0.000000000000e+00
  -9.568116609529e-03 -1.269831160458e-02 0.000000000000e+00
  0.000000000000e+00 0.000000000000e+00 0.000000000000e+00
  0.000000000000e+00 0.000000000000e+00 0.000000000000e+00
  -4.237141105937e-02 1.329954590879e-02 0.000000000000e+00
  -4.270327462066e-02 4.270327462066e-02 0.000000000000e+00
  -4.320933110610e-02 7.903131191587e-02 0.000000000000e+00
  -4.358191981359e-02 1.225306888816e-01 0.000000000000e+00
  -4.338384859998e-02 1.687432368664e-01 0.000000000000e+00
  -4.208792049639e-02 2.095510467472e-01 0.000000000000e+00
  -3.914033417751e-02 2.356522680309e-01 0.000000000000e+00
  -3.405224504797e-02 2.394214437807e-01 0.000000000000e+00
  -2.652270173700e-02 2.169776579085e-01 0.000000000000e+00
  -1.658634176909e-02 1.687184850116e-01 0.000000000000e+00
  -4.755330781257e-03 9.837535067166e-02 0.000000000000e+00
  7.903464114536e-03 1.136189999763e-02 0.000000000000e+00
  1.982442472012e-02 -8.660367893586e-02 0.000000000000e+00
  2.917009252803e-02 -1.900193238923e-01 0.000000000000e+00
  3.419982239091e-02 -2.933702881273e-01 0.000000000000e+00
  3.367977742592e-02 -3.907458626980e-01 0.000000000000e+00
  2.720102213788e-02 -4.758841014466e-01 0.000000000000e+00
  1.530042988060e-02 -5.428197273150e-01 0.000000000000e+00
  -6.467961530093e-04 -5.868778561167e-01 0.000000000000e+00
  -1.871535332438e-02 -6.055992033134e-01 0.000000000000e+00
  -3.680586569869e-02 -5.993123416585e-01 0.000000000000e+00
  -5.301438763111e-02 -5.712715069732e-01 0.000000000000e+00
  -6.592587641385e-02 -5.273605489259e-01 0.000000000000e+00
  -7.478832485828e-02 -4.753263799241e-01 0.000000000000e+00
  -7.954202925740e-02 -4.235044110704e-01 0.000000000000e+00
  -8.069673933848e-02 -3.791585413295e-01 0.000000000000e+00
  -7.908064708054e-02 -3.468309383558e-01 0.000000000000e+00
  -7.552725947940e-02 -3.272839917624e-01 0.000000000000e+00
  -7.059851379672e-02 -3.175270186890e-01 0.000000000000e+00
  -6.443961172089e-02 -3.120270223524e-01 0.000000000000e+00
  -5.681362558580e-02 -3.046847950210e-01 0.000000000000e+00
  -4.728998019502e-02 -2.907959929226e-01 0.000000000000e+00
  -3.549770224937e-02 -2.682231246369e-01 0.000000000000e+00
  -2.133536349879e-02 -2.373930482761e-01 0.000000000000e+00
  -5.062887797165e-03 -2.003110296116e-01 0.000000000000e+00
  1.273651212297e-02 -1.592450666849e-01 0.000000000000e+00
  3.128021477712e-02 -1.158331783021e-01 0.000000000000e+00
  4.973100736099e-02 -7.104442641845e-02 0.000000000000e+00
  6.731431996099e-02 -2.586621769492e-02 0.000000000000e+00
  8.339234388643e-02 1.786732387371e-02 0.000000000000e+00
  9.750354681413e-02 5.716294845991e-02 0.000000000000e+00
  1.093794898274e-01 8.837638743520e-02 0.000000000000e+00
  1.189414644157e-01 1.083130022528e-01 0.000000000000e+00
  1.262737798078e-01 1.153335473389e-01 0.000000000000e+00
  1.315766041601e-01 1.098982149588e-01 0.000000000000e+00
  1.351118484747e-01 9.431708148992e-02 0.000000000000e+00
  1.371577015555e-01 7.188023546739e-02 0.000000000000e+00
  1.379776969301e-01 4.579506626633e-02 0.000000000000e+00
  1.377987417877e-01 1.838415512024e-02 0.000000000000e+00
  1.367910445614e-01 -9.161184729953e-03 0.000000000000e+00
  1.350509229412e-01 -3.643095279835e-02 0.000000000000e+00
  1.325936097041e-01 -6.306375873572e-02 0.000000000000e+00
  1.293593279204e-01 -8.800515535968e-02 0.000000000000e+00
  1.252271945828e-01 -1.091323105288e-01 0.000000000000e+00
  1.200292849513e-01 -1.234652797136e-01 0.000000000000e+00
  1.135643735949e-01 -1.279366266590e-01 0.000000000000e+00
  1.056182849886e-01 -1.204351403749e-01 0.000000000000e+00
  9.599593512122e-02 -1.006673657690e-01 0.000000000000e+00
  8.456119946617e-02 -7.039127776171e-02 0.000000000000e+00
  7.127556481031e-02 -3.283148694255e-02 0.000000000000e+00
  5.623063816988e-02 8.486139005925e-03 0.000000000000e+00
  3.967576190667e-02 5.087797390477e-02 0.000000000000e+00
  2.203878713143e-02 9.299236561041e-02 0.000000000000e+00
  3.924635674447e-03 1.343989570140e-01 0.000000000000e+00
  -1.393353425523e-02 1.746104141046e-01 0.000000000000e+00
  -3.078524304995e-02 2.122582688130e-01 0.000000000000e+00
  -4.601673373794e-02 2.450724671780e-01 0.000000000000e+00
  -5.928996314538e-02 2.708176877965e-01 0.000000000000e+00
  -7.059166709287e-02 2.887272004848e-01 0.000000000000e+00
  -8.014294934656e-02 3.006157939522e-01 0.000000000000e+00
  -8.818247726999e-02 3.109522802869e-01 0.000000000000e+00
  -9.470647143006e-02 3.256697900250e-01 0.000000000000e+00
  -9.928685360891e-02 3.501174813274e-01 0.000000000000e+00
  -1.010696625715e-01 3.869832068483e-01 0.000000000000e+00
  -9.898413396191e-02 4.350326201926e-01 0.000000000000e+00
  -9.210259646795e-02 4.891289812030e-01 0.000000000000e+00
  -8.002627019215e-02 5.414399557410e-01 0.000000000000e+00
  -6.316106337497e-02 5.832976227949e-01 0.000000000000e+00
  -4.279012936295e-02 6.070507505664e-01 0.000000000000e+00
  -2.092051000641e-02 6.074253235718e-01 0.000000000000e+00
  5.297090630232e-05 5.822111746709e-01 0.000000000000e+00
  1.778247517087e-02 5.323168864493e-01 0.000000000000e+00
  3.040174502864e-02 4.613068499728e-01 0.000000000000e+00
  3.686474913204e-02 3.745394926541e-01 0.000000000000e+00
  3.710956801936e-02 2.780935296646e-01 0.000000000000e+00
  3.200410000526e-02 1.778073939360e-01 0.000000000000e+00
  2.308636927571e-02 7.880910912928e-02 0.000000000000e+00
  1.217609848358e-02 -1.429128573865e-02 0.000000000000e+00
  9.772993432260e-04 -9.680666581824e-02 0.000000000000e+00
  -9.212156329558e-03 -1.636066892107e-01 0.000000000000e+00
  -1.762087324618e-02 -2.095839045211e-01 0.000000000000e+00
  -2.396536561121e-02 -2.310434031406e-01 0.000000000000e+00
  -2.831914787719e-02 -2.274106821930e-01 0.000000000000e+00
  -3.096681748250e-02 -2.022570395949e-01 0.000000000000e+00
  -3.229168929454e-02 -1.628538505945e-01 0.000000000000e+00
  -3.270519690190e-02 -1.181844746181e-01 0.000000000000e+00
  -3.260165492790e-02 -7.614259315653e-02 0.000000000000e+00
  -3.232102047691e-02 -4.108507589844e-02 0.000000000000e+00
  -3.211406378231e-02 -1.278240563569e-02 0.000000000000e+00
  0.000000000000e+00 0.000000000000e+00 0.000000000000e+00
  0.000000000000e+00 0.000000000000e+00 0.000000000000e+00
  -7.865052829816e-02 1.350613660235e-02 0.000000000000e+00
  -7.903131191586e-02 4.320933110610e-02 0.000000000000e+00
  -7.950414629498e-02 7.950414629498e-02 0.000000000000e+00
  -7.952085409956e-02 1.224471510145e-01 0.000000000000e+00
  -7.833599835132e-02 1.674438477716e-01 0.000000000000e+00
  -7.510321113416e-02 2.063217205213e-01 0.000000000000e+00
  -6.900147347301e-02 2.298322702768e-01 0.000000000000e+00
  -5.938622717018e-02 2.305381061025e-01 0.000000000000e+00
  -4.596318596634e-02 2.049084110720e-01 0.000000000000e+00
  -2.897664330309e-02 1.538648292170e-01 0.000000000000e+00
  -9.377480164721e-03 8.179883234010e-02 0.000000000000e+00
  1.110148959633e-02 -5.199346327655e-03 0.000000000000e+00
  3.005108015713e-02 -1.009129837770e-01 0.000000000000e+00
  4.472286920133e-02 -1.997274759034e-01 0.000000000000e+00
  5.255862174327e-02 -2.965276185211e-01 0.000000000000e+00
  5.177407600014e-02 -3.862839415961e-01 0.000000000000e+00
  4.181210409584e-02 -4.639052953562e-01 0.000000000000e+00
  2.351776792727e-02 -5.246036049795e-01 0.000000000000e+00
  -1.010164648208e-03 -5.646188198430e-01 0.000000000000e+00
  -2.882835353493e-02 -5.819714935290e-01 0.000000000000e+00
  -5.669421096477e-02 -5.769836816388e-01 0.000000000000e+00
  -8.162043295528e-02 -5.524654230700e-01 0.000000000000e+00
  -1.013408766582e-01 -5.135347003435e-01 0.000000000000e+00
  -1.146164643912e-01 -4.670141923292e-01 0.000000000000e+00
  -1.213250155017e-01 -4.203543431556e-01 0.000000000000e+00
  -1.223024910783e-01 -3.801764235866e-01 0.000000000000e+00
  -1.189568378362e-01 -3.507748015987e-01 0.000000000000e+00
  -1.127537706987e-01 -3.330965832581e-01 0.000000000000e+00
  -1.047380544423e-01 -3.246588891323e-01 0.000000000000e+00
  -9.525780873533e-02 -3.205342996916e-01 0.000000000000e+00
  -8.398492166115e-02 -3.150763908904e-01 0.000000000000e+00
  -7.020116355232e-02 -3.037118005514e-01 0.000000000000e+00
  -5.321002499189e-02 -2.840907335114e-01 0.000000000000e+00
  -3.269627170114e-02 -2.562015314373e-01 0.000000000000e+00
  -8.904145445611e-03 -2.215671483969e-01 0.000000000000e+00
  1.739408262505e-02 -1.820865758714e-01 0.000000000000e+00
  4.507530704734e-02 -1.392165961597e-01 0.000000000000e+00
  7.288700353554e-02 -9.392349758027e-02 0.000000000000e+00
  9.963365424318e-02 -4.731710975907e-02 0.000000000000e+00
  1.242997933550e-01 -1.425946978638e-03 0.000000000000e+00
  1.461202307598e-01 4.052457914976e-02 0.000000000000e+00
  1.646154862292e-01 7.464355849056e-02 0.000000000000e+00
  1.795970785839e-01 9.750226454506e-02 0.000000000000e+00
  1.911377414845e-01 1.072713071054e-01 0.000000000000e+00
  1.995090233682e-01 1.042863493584e-01 0.000000000000e+00
  2.051037317247e-01 9.079899485193e-02 0.000000000000e+00
  2.083647729193e-01 7.009142826468e-02 0.000000000000e+00
  2.097296137878e-01 4.539903762750e-02 0.000000000000e+00
  2.095845678882e-01 1.910418513269e-02 0.000000000000e+00
  2.082216852829e-01 -7.510634682407e-03 0.000000000000e+00
  2.058025737435e-01 -3.392226958559e-02 0.000000000000e+00
  2.023417469404e-01 -5.965430194607e-02 0.000000000000e+00
  1.977156292883e-01 -8.355421288570e-02 0.000000000000e+00
  1.916895584835e-01 -1.034250491485e-01 0.000000000000e+00
  1.839504620454e-01 -1.162355353985e-01 0.000000000000e+00
  1.741418832580e-01 -1.188928812547e-01 0.000000000000e+00
  1.619079899451e-01 -1.092989042977e-01 0.000000000000e+00
  1.469508452927e-01 -8.722410774559e-02 0.000000000000e+00
  1.290936547343e-01 -5.454260994824e-02 0.000000000000e+00
  1.083369496551e-01 -1.463781534009e-02 0.000000000000e+00
  8.490169369072e-02 2.877264975198e-02 0.000000000000e+00
  5.926191662572e-02 7.278611629141e-02 0.000000000000e+00
  3.216338773170e-02 1.158197267511e-01 0.000000000000e+00
  4.604201019533e-03 1.572449339444e-01 0.000000000000e+00
  -2.226008833454e-02 1.964868963934e-01 0.000000000000e+00
  -4.730476945334e-02 2.322781763971e-01 0.000000000000e+00
  -6.968108482121e-02 2.626603656254e-01 0.000000000000e+00
  -8.902098748525e-02 2.858429214067e-01 0.000000000000e+00
  -1.054831280965e-01 3.014658114258e-01 0.000000000000e+00
  -1.195691408559e-01 3.115144780204e-01 0.000000000000e+00
  -1.317446070427e-01 3.202685903270e-01 0.000000000000e+00
  -1.420108082716e-01 3.331436753729e-01 0.000000000000e+00
  -1.496271108322e-01 3.548402807185e-01 0.000000000000e+00
  -1.531413794944e-01 3.875574850817e-01 0.000000000000e+00
  -1.507611056982e-01 4.299925395534e-01 0.000000000000e+00
  -1.409511988396e-01 4.774776174897e-01 0.000000000000e+00
  -1.230476922168e-01 5.231114865557e-01 0.000000000000e+00
  -9.767273269566e-02 5.593859256419e-01 0.000000000000e+00
  -6.681720403681e-02 5.797359850485e-01 0.000000000000e+00
  -3.357510796367e-02 5.796283736600e-01 0.000000000000e+00
  -1.613622902500e-03 5.570731586088e-01 0.000000000000e+00
  2.548490042145e-02 5.126268749228e-01 0.000000000000e+00
  4.486358815617e-02 4.489989039067e-01 0.000000000000e+00
  5.488298126906e-02 3.703650415039e-01 0.000000000000e+00
  5.535990838609e-02 2.815462348105e-01 0.000000000000e+00
  4.749598272197e-02 1.873240824684e-01 0.000000000000e+00
  3.351310539897e-02 9.219302864946e-02 0.000000000000e+00
  1.610106686405e-02 6.471040682249e-04 0.000000000000e+00
  -2.156107004642e-03 -8.228908261607e-02 0.000000000000e+00
  -1.921133832533e-02 -1.508795854194e-01 0.000000000000e+00
  -3.375178771362e-02 -1.993618420075e-01 0.000000000000e+00
  -4.517416358887e-02 -2.234985974139e-01 0.000000000000e+00
  -5.342703279663e-02 -2.223488364460e-01 0.000000000000e+00
  -5.882372695052e-02 -1.992745215828e-01 0.000000000000e+00
  -6.188957493913e-02 -1.614456488060e-01 0.000000000000e+00
  -6.325305897410e-02 -1.178156847643e-01 0.000000000000e+00
  -6.355998059829e-02 -7.630800336016e-02 0.000000000000e+00
  -6.339209172746e-02 -4.136818901662e-02 0.000000000000e+00
  -6.318962674155e-02 -1.290871419802e-02 0.000000000000e+00
  0.000000000000e+00 0.000000000000e+00 0.000000000000e+00
  0.000000000000e+00 0.000000000000e+00 0.000000000000e+00
  -1.223517723728e-01 1.369324802135e-02 0.000000000000e+00
  -1.225306888816e-01 4.358191981359e-02 0.000000000000e+00
  -1.224471510145e-01 7.952085409956e-02 0.000000000000e+00
  -1.212893911588e-01 1.212893911588e-01 0.000000000000e+00
  -1.180117094531e-01 1.641390701735e-01 0.000000000000e+00
  -1.115197629925e-01 1.999017644415e-01 0.000000000000e+00
  -1.008769181527e-01 2.195076438556e-01 0.000000000000e+00
  -8.550484597088e-02 2.158754140390e-01 0.000000000000e+00
  -6.536530368020e-02 1.860085196410e-01 0.000000000000e+00
  -4.111897937332e-02 1.315318536779e-01 0.000000000000e+00
  -1.424145471325e-02 5.765512008079e-02 0.000000000000e+00
  1.296043468983e-02 -2.873649323247e-02 0.000000000000e+00
  3.751183411923e-02 -1.208768268624e-01 0.000000000000e+00
  5.616302115520e-02 -2.130866088981e-01 0.000000000000e+00
  6.597460468450e-02 -3.008158215976e-01 0.000000000000e+00
  6.495383857932e-02 -3.801904266714e-01 0.000000000000e+00
  5.254899943613e-02 -4.476319992334e-01 0.000000000000e+00
  2.984551644233e-02 -4.998790819399e-01 0.000000000000e+00
  -5.874555110288e-04 -5.343824383538e-01 0.000000000000e+00
  -3.514074129104e-02 -5.498364003515e-01 0.000000000000e+00
  -6.977875539880e-02 -5.466149032787e-01 0.000000000000e+00