# vtk DataFile Version 3.0
Karman Output
ASCII
DATASET RECTILINEAR_GRID
DIMENSIONS 101 101 1
X_COORDINATES 101 float
   0.000000000000e+00   9.900990099010e-03   1.980198019802e-02   2.970297029703e-02   3.960396039604e-02   4.950495049505e-02   5.940594059406e-02   6.930693069307e-02   7.920792079208e-02   8.910891089109e-02   9.900990099010e-02   1.089108910891e-01   1.188118811881e-01   1.287128712871e-01   1.386138613861e-01   1.485148514851e-01   1.584158415842e-01   1.683168316832e-01   1.782178217822e-01   1.881188118812e-01   1.980198019802e-01   2.079207920792e-01   2.178217821782e-01   2.277227722772e-01   2.376237623762e-01   2.475247524752e-01   2.574257425743e-01   2.673267326733e-01   2.772277227723e-01   2.871287128713e-01   2.970297029703e-01   3.069306930693e-01   3.168316831683e-01   3.267326732673e-01   3.366336633663e-01   3.465346534653e-01   3.564356435644e-01   3.663366336634e-01   3.762376237624e-01   3.861386138614e-01   3.960396039604e-01   4.059405940594e-01   4.158415841584e-01   4.257425742574e-01   4.356435643564e-01   4.455445544554e-01   4.554455445545e-01   4.653465346535e-01   4.752475247525e-01   4.851485148515e-01   4.950495049505e-01   5.049504950495e-01   5.148514851485e-01   5.247524752475e-01   5.346534653465e-01   5.445544554455e-01   5.544554455446e-01   5.643564356436e-01   5.742574257426e-01   5.841584158416e-01   5.940594059406e-01   6.039603960396e-01   6.138613861386e-01   6.237623762376e-01   6.336633663366e-01   6.435643564356e-01   6.534653465347e-01   6.633663366337e-01   6.732673267327e-01   6.831683168317e-01   6.930693069307e-01   7.029702970297e-01   7.128712871287e-01   7.227722772277e-01   7.326732673267e-01   7.425742574257e-01   7.524752475248e-01   7.623762376238e-01   7.722772277228e-01   7.821782178218e-01   7.920792079208e-01   8.019801980198e-01   8.118811881188e-01   8.217821782178e-01   8.316831683168e-01   8.415841584158e-01   8.514851485149e-01   8.613861386139e-01   8.712871287129e-01   8.811881188119e-01   8.910891089109e-01   9.009900990099e-01   9.108910891089e-01   9.207920792079e-01   9.306930693069e-01   9.405940594059e-01   9.504950495050e-01   9.603960396040e-01   9.702970297030e-01   9.801980198020e-01   9.900990099010e-01
Y_COORDINATES 101 float
   0.000000000000e+00   9.900990099010e-03   1.980198019802e-02   2.970297029703e-02   3.960396039604e-02   4.950495049505e-02   5.940594059406e-02   6.930693069307e-02   7.920792079208e-02   8.910891089109e-02   9.900990099010e-02   1.089108910891e-01   1.188118811881e-01   1.287128712871e-01   1.386138613861e-01   1.485148514851e-01   1.584158415842e-01   1.683168316832e-01   1.782178217822e-01   1.881188118812e-01   1.980198019802e-01   2.079207920792e-01   2.178217821782e-01   2.277227722772e-01   2.376237623762e-01   2.475247524752e-01   2.574257425743e-01   2.673267326733e-01   2.772277227723e-01   2.871287128713e-01   2.970297029703e-01   3.069306930693e-01   3.168316831683e-01   3.267326732673e-01   3.366336633663e-01   3.465346534653e-01   3.564356435644e-01   3.663366336634e-01   3.762376237624e-01   3.861386138614e-01   3.960396039604e-01   4.059405940594e-01   4.158415841584e-01   4.257425742574e-01   4.356435643564e-01   4.455445544554e-01   4.554455445545e-01   4.653465346535e-01   4.752475247525e-01   4.851485148515e-01   4.950495049505e-01   5.049504950495e-01   5.148514851485e-01   5.247524752475e-01   5.346534653465e-01   5.445544554455e-01   5.544554455446e-01   5.643564356436e-01   5.742574257426e-01   5.841584158416e-01   5.940594059406e-01   6.039603960396e-01   6.138613861386e-01   6.237623762376e-01   6.336633663366e-01   6.435643564356e-01   6.534653465347e-01   6.633663366337e-01   6.732673267327e-01   6.831683168317e-01   6.930693069307e-01   7.029702970297e-01   7.128712871287e-01   7.227722772277e-01   7.326732673267e-01   7.425742574257e-01   7.524752475248e-01   7.623762376238e-01   7.722772277228e-01   7.821782178218e-01   7.920792079208e-01   8.019801980198e-01   8.118811881188e-01   8.217821782178e-01   8.316831683168e-01   8.415841584158e-01   8.514851485149e-01   8.613861386139e-01   8.712871287129e-01   8.811881188119e-01   8.910891089109e-01   9.009900990099e-01   9.108910891089e-01   9.207920792079e-01   9.306930693069e-01   9.405940594059e-01   9.504950495050e-01   9.603960396040e-01   9.702970297030e-01   9.801980198020e-01   9.900990099010e-01
Z_COORDINATES 1 float
  0.000000000000e+00
POINT_DATA 10201
VECTORS E_field float
  0.000000000000e+00 0.000000000000e+00 0.000000000000e+00
  0.000000000000e+00 0.000000000000e+00 0.000000000000e+00
  0.000000000000e+00 0.000000000000e+00 0.000000000000e+00
  0.000000000000e+00 0.000000000000e+00 0.000000000000e+00
  0.000000000000e+00 0.000000000000e+00 0.000000000000e+00
  0.000000000000e+00 0.000000000000e+00 0.000000000000e+00
  0.000000000000e+00 0.000000000000e+00 0.000000000000e+00
  0.000000000000e+00 0.000000000000e+00 0.000000000000e+00
  0.000000000000e+00 0.000000000000e+00 0.000000000000e+00
  0.000000000000e+00 0.000000000000e+00 0.000000000000e+00
  0.000000000000e+00 0.000000000000e+00 0.000000000000e+00
  0.000000000000e+00 0.000000000000e+00 0.000000000000e+00
  0.000000000000e+00 0.000000000000e+00 0.000000000000e+00
  0.000000000000e+00 0.000000000000e+00 0.000000000000e+00
  0.000000000000e+00 0.000000000000e+00 0.000000000000e+00
  0.000000000000e+00 0.000000000000e+00 0.000000000000e+00
  0.000000000000e+00 0.000000000000e+00 0.000000000000e+00
  0.000000000000e+00 0.000000000000e+00 0.000000000000e+00
  0.000000000000e+00 0.000000000000e+00 0.000000000000e+00
  0.000000000000e+00 0.000000000000e+00 0.000000000000e+00
  0.000000000000e+00 0.000000000000e+00 0.000000000000e+00
  0.000000000000e+00 0.000000000000e+00 0.000000000000e+00
  0.000000000000e+00 0.000000000000e+00 0.000000000000e+00
  0.000000000000e+00 0.000000000000e+00 0.000000000000e+00
  0.000000000000e+00 0.000000000000e+00 0.000000000000e+00
  0.000000000000e+00 0.000000000000e+00 0.000000000000e+00
  0.000000000000e+00 0.000000000000e+00 0.000000000000e+00
  0.000000000000e+00 0.000000000000e+00 0.000000000000e+00
  0.000000000000e+00 0.000000000000e+00 0.000000000000e+00
  0.000000000000e+00 0.000000000000e+00 0.000000000000e+00
  0.000000000000e+00 0.000000000000e+00 0.000000000000e+00
  0.000000000000e+00 0.000000000000e+00 0.000000000000e+00
  0.000000000000e+00 0.000000000000e+00 0.000000000000e+00
  0.000000000000e+00 0.000000000000e+00 0.000000000000e+00
  0.000000000000e+00 0.000000000000e+00 0.000000000000e+00
  0.000000000000e+00 0.000000000000e+00 0.000000000000e+00
  0.000000000000e+00 0.000000000000e+00 0.000000000000e+00
  0.000000000000e+00 0.000000000000e+00 0.000000000000e+00
  0.000000000000e+00 0.000000000000e+00 0.000000000000e+00
  0.000000000000e+00 0.000000000000e+00 0.000000000000e+00
  0.000000000000e+00 0.000000000000e+00 0.000000000000e+00
  0.000000000000e+00 0.000000000000e+00 0.000000000000e+00
  0.000000000000e+00 0.000000000000e+00 0.000000000000e+00
  0.000000000000e+00 0.000000000000e+00 0.000000000000e+00
  0.000000000000e+00 0.000000000000e+00 0.000000000000e+00
  0.000000000000e+00 0.000000000000e+00 0.000000000000e+00
  0.000000000000e+00 0.000000000000e+00 0.000000000000e+00
  0.000000000000e+00 0.000000000000e+00 0.000000000000e+00
  0.000000000000e+00 0.000000000000e+00 0.000000000000e+00
  0.000000000000e+00 0.000000000000e+00 0.000000000000e+00
  0.000000000000e+00 0.000000000000e+00 0.000000000000e+00
  0.000000000000e+00 0.000000000000e+00 0.000000000000e+00
  0.000000000000e+00 0.000000000000e+00 0.000000000000e+00
  0.000000000000e+00 0.000000000000e+00 0.000000000000e+00
  0.000000000000e+00 0.000000000000e+00 0.000000000000e+00
  0.000000000000e+00 0.000000000000e+00 0.000000000000e+00
  0.000000000000e+00 0.000000000000e+00 0.000000000000e+00
  0.000000000000e+00 0.000000000000e+00 0.000000000000e+00
  0.000000000000e+00 0.000000000000e+00 0.000000000000e+00
  0.000000000000e+00 0.000000000000e+00 0.000000000000e+00
  0.000000000000e+00 0.000000000000e+00 0.000000000000e+00
  0.000000000000e+00 0.000000000000e+00 0.000000000000e+00
  0.000000000000e+00 0.000000000000e+00 0.000000000000e+00
  0.000000000000e+00 0.000000000000e+00 0.000000000000e+00
  0.000000000000e+00 0.000000000000e+00 0.000000000000e+00
  0.000000000000e+00 0.000000000000e+00 0.000000000000e+00
  0.000000000000e+00 0.000000000000e+00 0.000000000000e+00
  0.000000000000e+00 0.000000000000e+00 0.000000000000e+00
  0.000000000000e+00 0.000000000000e+00 0.000000000000e+00
  0.000000000000e+00 0.000000000000e+00 0.000000000000e+00
  0.000000000000e+00 0.000000000000e+00 0.000000000000e+00
  0.000000000000e+00 0.000000000000e+00 0.000000000000e+00
  0.000000000000e+00 0.000000000000e+00 0.000000000000e+00
  0.000000000000e+00 0.000000000000e+00 0.000000000000e+00
  0.000000000000e+00 0.000000000000e+00 0.000000000000e+00
  0.000000000000e+00 0.000000000000e+00 0.000000000000e+00
  0.000000000000e+00 0.000000000000e+00 0.000000000000e+00
  0.000000000000e+00 0.000000000000e+00 0.000000000000e+00
  0.000000000000e+00 0.000000000000e+00 0.000000000000e+00
  0.000000000000e+00 0.000000000000e+00 0.000000000000e+00
  0.000000000000e+00 0.000000000000e+00 0.000000000000e+00
  0.000000000000e+00 0.000000000000e+00 0.000000000000e+00
  0.000000000000e+00 0.000000000000e+00 0.000000000000e+00
  0.000000000000e+00 0.000000000000e+00 0.000000000000e+00
  0.000000000000e+00 0.000000000000e+00 0.000000000000e+00
  0.000000000000e+00 0.000000000000e+00 0.000000000000e+00
  0.000000000000e+00 0.000000000000e+00 0.000000000000e+00
  0.000000000000e+00 0.000000000000e+00 0.000000000000e+00
  0.000000000000e+00 0.000000000000e+00 0.000000000000e+00
  0.000000000000e+00 0.000000000000e+00 0.000000000000e+00
  0.000000000000e+00 0.000000000000e+00 0.000000000000e+00
  0.000000000000e+00 0.000000000000e+00 0.000000000000e+00
  0.000000000000e+00 0.000000000000e+00 0.000000000000e+00
  0.000000000000e+00 0.000000000000e+00 0.000000000000e+00
  0.000000000000e+00 0.000000000000e+00 0.000000000000e+00
  0.000000000000e+00 0.000000000000e+00 0.000000000000e+00
  0.000000000000e+00 0.000000000000e+00 0.000000000000e+00
  0.000000000000e+00 0.000000000000e+00 0.000000000000e+00
  0.000000000000e+00 0.000000000000e+00 0.000000000000e+00
  0.000000000000e+00 0.000000000000e+00 0.000000000000e+00
  0.000000000000e+00 0.000000000000e+00 0.000000000000e+00
  0.000000000000e+00 0.000000000000e+00 0.000000000000e+00
  -2.256212929563e-02 2.256212929563e-02 0.000000000000e+00
  -2.147217259998e-02 6.155296061716e-02 0.000000000000e+00
  -1.955786643272e-02 8.409753082263e-02 0.000000000000e+00
  -1.727549613697e-02 8.496648459716e-02 0.000000000000e+00
  -1.514235479156e-02 6.517856855391e-02 0.000000000000e+00
  -1.358870272081e-02 3.091974196953e-02 0.000000000000e+00
  -1.283497145596e-02 -9.112376017551e-03 0.000000000000e+00
  -1.283197440144e-02 -4.673656360102e-02 0.000000000000e+00
  -1.328293943493e-02 -7.655426875986e-02 0.000000000000e+00
  -1.373983087145e-02 -9.682402625663e-02 0.000000000000e+00
  -1.374195209769e-02 -1.089187116856e-01 0.000000000000e+00
  -1.295104387087e-02 -1.157829189530e-01 0.000000000000e+00
  -1.123924408635e-02 -1.200270847625e-01 0.000000000000e+00
  -8.704434471300e-03 -1.223565625047e-01 0.000000000000e+00
  -5.615851151726e-03 -1.209592627736e-01 0.000000000000e+00
  -2.320077465137e-03 -1.121866185326e-01 0.000000000000e+00
  8.494975132399e-04 -9.232762176017e-02 0.000000000000e+00
  3.625754104886e-03 -5.969142635418e-02 0.000000000000e+00
  5.816174224519e-03 -1.596397830025e-02 0.000000000000e+00
  7.287154468010e-03 3.385170328376e-02 0.000000000000e+00
  7.955741156816e-03 8.282156918852e-02 0.000000000000e+00
  7.806457207139e-03 1.240067559810e-01 0.000000000000e+00
  6.923326505679e-03 1.520056331973e-01 0.000000000000e+00
  5.507329998191e-03 1.636399202229e-01 0.000000000000e+00
  3.853261413962e-03 1.579428408293e-01 0.000000000000e+00
  2.284968148141e-03 1.359300371815e-01 0.000000000000e+00
  1.075473896067e-03 1.004872197455e-01 0.000000000000e+00
  3.882152693485e-04 5.631887695631e-02 0.000000000000e+00
  2.615671040831e-04 9.630350255027e-03 0.000000000000e+00
  6.327916827134e-04 -3.273981973100e-02 0.000000000000e+00
  1.378507199722e-03 -6.471457831918e-02 0.000000000000e+00
  2.347899954678e-03 -8.251391610090e-02 0.000000000000e+00
  3.378687817294e-03 -8.573069215860e-02 0.000000000000e+00
  4.301494519224e-03 -7.740983100215e-02 0.000000000000e+00
  4.945033599896e-03 -6.294878039107e-02 0.000000000000e+00
  5.150688337852e-03 -4.814968623709e-02 0.000000000000e+00
  4.796588723405e-03 -3.717043221293e-02 0.000000000000e+00
  3.824704975026e-03 -3.120024239349e-02 0.000000000000e+00
  2.262140905403e-03 -2.836549091265e-02 0.000000000000e+00
  2.284346663606e-04 -2.483054747407e-02 0.000000000000e+00
  -2.076971958398e-03 -1.658859722664e-02 0.000000000000e+00
  -4.408296002234e-03 -1.244750823727e-03 0.000000000000e+00
  -6.521981752263e-03 2.080629363657e-02 0.000000000000e+00
  -8.227041424945e-03 4.614024197941e-02 0.000000000000e+00
  -9.421438072236e-03 6.904592220311e-02 0.000000000000e+00
  -1.010362483221e-02 8.305838100754e-02 0.000000000000e+00
  -1.035809042236e-02 8.289915553870e-02 0.000000000000e+00
  -1.032255871619e-02 6.628590496880e-02 0.000000000000e+00
  -1.014795134473e-02 3.500778798088e-02 0.000000000000e+00
  -9.960457317344e-03 -5.205875295958e-03 0.000000000000e+00
  -9.831467624302e-03 -4.611345911350e-02 0.000000000000e+00
  -9.758933184971e-03 -7.925815508624e-02 0.000000000000e+00
  -9.663608006668e-03 -9.832419066176e-02 0.000000000000e+00
  -9.403948980696e-03 -1.007255777615e-01 0.000000000000e+00
  -8.811496734321e-03 -8.795549574431e-02 0.000000000000e+00
  -7.742674848562e-03 -6.472514062547e-02 0.000000000000e+00
  -6.134392711611e-03 -3.730334007536e-02 0.000000000000e+00
  -4.044409734728e-03 -1.161688988473e-02 0.000000000000e+00
  -1.658794065773e-03 8.361424951109e-03 0.000000000000e+00
  7.402730079139e-04 2.152627259252e-02 0.000000000000e+00
  2.837521510726e-03 2.960604420673e-02 0.000000000000e+00
  4.358004520551e-03 3.616409819325e-02 0.000000000000e+00
  5.128645880077e-03 4.491875129766e-02 0.000000000000e+00
  5.112707447480e-03 5.795508526437e-02 0.000000000000e+00
  4.412149635039e-03 7.452470694565e-02 0.000000000000e+00
  3.241286756177e-03 9.096021446514e-02 0.000000000000e+00
  1.880687991129e-03 1.017888007558e-01 0.000000000000e+00
  6.237585752443e-04 1.016132695103e-01 0.000000000000e+00
  -2.707802612840e-04 8.700937862516e-02 0.000000000000e+00
  -6.113115472069e-04 5.772715038074e-02 0.000000000000e+00
  -2.900889186053e-04 1.683074618160e-02 0.000000000000e+00
  7.080785410168e-04 -3.013615275951e-02 0.000000000000e+00
  2.297227935374e-03 -7.652706533006e-02 0.000000000000e+00
  4.283039930327e-03 -1.159648409066e-01 0.000000000000e+00
  6.369969900311e-03 -1.433005598700e-01 0.000000000000e+00
  8.197425833175e-03 -1.550638988235e-01 0.000000000000e+00
  9.405862627737e-03 -1.496209077172e-01 0.000000000000e+00
  9.712408837347e-03 -1.273456905172e-01 0.000000000000e+00
  8.964400151943e-03 -9.088343458846e-02 0.000000000000e+00
  7.149845660121e-03 -4.519949809869e-02 0.000000000000e+00
  4.370801603890e-03 3.062623075456e-03 0.000000000000e+00
  8.084772141248e-04 4.709321288946e-02 0.000000000000e+00
  -3.291209278087e-03 8.184291005041e-02 0.000000000000e+00
  -7.607049663044e-03 1.054278762636e-01 0.000000000000e+00
  -1.173199121678e-02 1.191955183627e-01 0.000000000000e+00
  -1.519897415601e-02 1.263438751340e-01 0.000000000000e+00
  -1.756210088596e-02 1.298115047981e-01 0.000000000000e+00
  -1.851658764001e-02 1.305324796095e-01 0.000000000000e+00
  -1.801070297436e-02 1.268890290505e-01 0.000000000000e+00
  -1.629703173779e-02 1.155517915221e-01 0.000000000000e+00
  -1.389201631558e-02 9.329544098394e-02 0.000000000000e+00
  -1.144936885984e-02 5.905884868978e-02 0.000000000000e+00
  -9.586427646063e-03 1.547242500711e-02 0.000000000000e+00
  -8.719279380502e-03 -3.079459898138e-02 0.000000000000e+00
  -8.958208335464e-03 -7.022444797653e-02 0.000000000000e+00
  -1.009373542273e-02 -9.305405235895e-02 0.000000000000e+00
  -1.167404932062e-02 -9.256383759539e-02 0.000000000000e+00
  -1.314734286522e-02 -6.785327443716e-02 0.000000000000e+00
  -1.402585723494e-02 -2.488106380758e-02 0.000000000000e+00
  0.000000000000e+00 0.000000000000e+00 0.000000000000e+00
  0.000000000000e+00 0.000000000000e+00 0.000000000000e+00
  -6.155296061716e-02 2.147217259998e-02 0.000000000000e+00
  -5.855634272340e-02 5.855634272340e-02 0.000000000000e+00
  -5.331319422201e-02 7.993669404775e-02 0.000000000000e+00
  -4.710983663627e-02 8.064159349055e-02 0.000000000000e+00
  -4.139929623274e-02 6.165977791158e-02 0.000000000000e+00
  -3.738056934636e-02 2.886615365474e-02 0.000000000000e+00
  -3.565138057406e-02 -9.541707739907e-03 0.000000000000e+00
  -3.604174406599e-02 -4.591986544125e-02 0.000000000000e+00
  -3.768110501250e-02 -7.528064093962e-02 0.000000000000e+00
  -3.927667404608e-02 -9.604519360677e-02 0.000000000000e+00
  -3.951111229926e-02 -1.094609848560e-01 0.000000000000e+00
  -3.742877845286e-02 -1.181138878558e-01 0.000000000000e+00
  -3.268589904066e-02 -1.241507950565e-01 0.000000000000e+00
  -2.559156268557e-02 -1.278619981809e-01 0.000000000000e+00
  -1.694724025785e-02 -1.271867328447e-01 0.000000000000e+00
  -7.770848450066e-03 -1.184313139558e-01 0.000000000000e+00
  9.703522689397e-04 -9.799370203429e-02 0.000000000000e+00
  8.518341522748e-03 -6.434959192552e-02 0.000000000000e+00
  1.435059028580e-02 -1.932848161159e-02 0.000000000000e+00
  1.813116437995e-02 3.196465225747e-02 0.000000000000e+00
  1.967675845721e-02 8.249443944874e-02 0.000000000000e+00
  1.899096159774e-02 1.251689665299e-01 0.000000000000e+00
  1.634294702749e-02 1.543745679201e-01 0.000000000000e+00
  1.230990850030e-02 1.667200205348e-01 0.000000000000e+00
  7.711396533818e-03 1.611153210682e-01 0.000000000000e+00
  3.432407045601e-03 1.386048396967e-01 0.000000000000e+00
  2.081216216390e-04 1.022461969063e-01 0.000000000000e+00
  -1.530403645833e-03 5.698568368969e-02 0.000000000000e+00
  -1.690467997855e-03 9.250256038953e-03 0.000000000000e+00
  -4.459739201734e-04 -3.397544417120e-02 0.000000000000e+00
  1.873749605883e-03 -6.654439292196e-02 0.000000000000e+00
  4.867897305976e-03 -8.464764195297e-02 0.000000000000e+00
  8.096024304100e-03 -8.785588116684e-02 0.000000000000e+00
  1.107910726540e-02 -7.919053165628e-02 0.000000000000e+00
  1.331001514191e-02 -6.404252669250e-02 0.000000000000e+00
  1.429997650522e-02 -4.825155603398e-02 0.000000000000e+00
  1.365934502336e-02 -3.607383131464e-02 0.000000000000e+00
  1.118884492751e-02 -2.885445943920e-02 0.000000000000e+00
  6.950128793370e-03 -2.490999365013e-02 0.000000000000e+00
  1.288637006973e-03 -2.059084669170e-02 0.000000000000e+00
  -5.207555713821e-03 -1.202669863584e-02 0.000000000000e+00
  -1.181272960180e-02 3.129848554596e-03 0.000000000000e+00
  -1.781066791333e-02 2.454331836769e-02 0.000000000000e+00
  -2.264322534468e-02 4.894083441058e-02 0.000000000000e+00
  -2.601496361101e-02 7.081146475253e-02 0.000000000000e+00
  -2.792417893046e-02 8.388424060994e-02 0.000000000000e+00
  -2.861881542171e-02 8.302239809063e-02 0.000000000000e+00
  -2.850014531123e-02 6.600846066774e-02 0.000000000000e+00
  -2.800613516391e-02 3.461661481894e-02 0.000000000000e+00
  -2.750114580825e-02 -5.507185478768e-03 0.000000000000e+00
  -2.718870253155e-02 -4.625358188377e-02 0.000000000000e+00
  -2.705808011380e-02 -7.932118917989e-02 0.000000000000e+00
  -2.687493488990e-02 -9.853962699989e-02 0.000000000000e+00
  -2.622643092948e-02 -1.014183044588e-01 0.000000000000e+00
  -2.462518629578e-02 -8.945646599042e-02 0.000000000000e+00
  -2.165953193669e-02 -6.725864669565e-02 0.000000000000e+00
  -1.715357584016e-02 -4.088407231198e-02 0.000000000000e+00
  -1.128257543087e-02 -1.599714110405e-02 0.000000000000e+00
  -4.592992975021e-03 3.666477983389e-03 0.000000000000e+00
  2.092485125033e-03 1.713667433414e-02 0.000000000000e+00
  7.860044182137e-03 2.613083486349e-02 0.000000000000e+00
  1.192079798966e-02 3.405807068762e-02 0.000000000000e+00
  1.379190114083e-02 4.438303426992e-02 0.000000000000e+00
  1.339600493974e-02 5.890263691028e-02 0.000000000000e+00
  1.106244296239e-02 7.661127507940e-02 0.000000000000e+00
  7.440567846465e-03 9.366638431989e-02 0.000000000000e+00
  3.354950437298e-03 1.045288470716e-01 0.000000000000e+00
  -3.562144697512e-04 1.038413175154e-01 0.000000000000e+00
  -2.977324392176e-03 8.829697937789e-02 0.000000000000e+00
  -3.999356816713e-03 5.780211333789e-02 0.000000000000e+00
  -3.153524443463e-03 1.558872822232e-02 0.000000000000e+00
  -4.217896012899e-04 -3.262403710215e-02 0.000000000000e+00
  3.947920153880e-03 -7.999804013700e-02 0.000000000000e+00
  9.422832102573e-03 -1.199545900433e-01 0.000000000000e+00
  1.519969909662e-02 -1.471746076973e-01 0.000000000000e+00
  2.029657520298e-02 -1.581141830354e-01 0.000000000000e+00
  2.372805550371e-02 -1.512105406006e-01 0.000000000000e+00
  2.470989634698e-02 -1.270444446867e-01 0.000000000000e+00
  2.280616032635e-02 -8.853293571293e-02 0.000000000000e+00
  1.796046509918e-02 -4.088974725523e-02 0.000000000000e+00
  1.042723679516e-02 9.065144592247e-03 0.000000000000e+00
  6.820925232520e-04 5.439816003434e-02 0.000000000000e+00
  -1.061023657767e-02 8.992997849867e-02 0.000000000000e+00
  -2.255974894758e-02 1.136061605702e-01 0.000000000000e+00
  -3.401877353052e-02 1.266012001928e-01 0.000000000000e+00
  -4.365618581953e-02 1.320425885322e-01 0.000000000000e+00
  -5.019099429174e-02 1.330107266021e-01 0.000000000000e+00
  -5.273728226144e-02 1.308340325293e-01 0.000000000000e+00
  -5.112689358918e-02 1.244712027928e-01 0.000000000000e+00
  -4.605977528672e-02 1.111888282408e-01 0.000000000000e+00
  -3.899315245396e-02 8.818676601029e-02 0.000000000000e+00
  -3.178452408683e-02 5.451624784057e-02 0.000000000000e+00
  -2.619857299052e-02 1.256613354623e-02 0.000000000000e+00
  -2.343623326611e-02 -3.151779551046e-02 0.000000000000e+00
  -2.383306934310e-02 -6.886548641549e-02 0.000000000000e+00
  -2.681454116807e-02 -9.029601500774e-02 0.000000000000e+00
  -3.111228167879e-02 -8.944382053799e-02 0.000000000000e+00
  -3.516732540114e-02 -6.544495422762e-02 0.000000000000e+00
  -3.759747870149e-02 -2.398071634703e-02 0.000000000000e+00
  0.000000000000e+00 0.000000000000e+00 0.000000000000e+00
  0.000000000000e+00 0.000000000000e+00 0.000000000000e+00
  -8.409753082263e-02 1.955786643272e-02 0.000000000000e+00
  -7.993669404775e-02 5.331319422201e-02 0.000000000000e+00
  -7.272038907871e-02 7.272038907871e-02 0.000000000000e+00
  -6.433734717724e-02 7.327149897237e-02 0.000000000000e+00
  -5.690493706012e-02 5.588692190911e-02 0.000000000000e+00
  -5.214101360037e-02 2.585635931108e-02 0.000000000000e+00
  -5.085071685441e-02 -9.551398914499e-03 0.000000000000e+00
  -5.268836304226e-02 -4.368216458689e-02 0.000000000000e+00
  -5.627114684589e-02 -7.229619704385e-02 0.000000000000e+00
  -5.960837862006e-02 -9.409683669479e-02 0.000000000000e+00
  -6.070662455365e-02 -1.100766575813e-01 0.000000000000e+00
  -5.815351351921e-02 -1.221336600114e-01 0.000000000000e+00
  -5.149214006441e-02 -1.315352757678e-01 0.000000000000e+00
  -4.127465450218e-02 -1.377893393868e-01 0.000000000000e+00
  -2.880500200152e-02 -1.383733665672e-01 0.000000000000e+00
  -1.570054513114e-02 -1.295255289116e-01 0.000000000000e+00
  -3.463867934571e-03 -1.078773649941e-01 0.000000000000e+00
  6.777070046786e-03 -7.225485620086e-02 0.000000000000e+00
  1.431547511422e-02 -2.479387116674e-02 0.000000000000e+00
  1.877942708218e-02 2.918551575050e-02 0.000000000000e+00
  2.004972909129e-02 8.245767986933e-02 0.000000000000e+00
  1.827090861849e-02 1.276703434416e-01 0.000000000000e+00
  1.393265070936e-02 1.588594634878e-01 0.000000000000e+00
  7.912603414895e-03 1.722882107887e-01 0.000000000000e+00
  1.379291286641e-03 1.666789549089e-01 0.000000000000e+00
  -4.450592244896e-03 1.431500788757e-01 0.000000000000e+00
  -8.598861416233e-03 1.050735123226e-01 0.000000000000e+00
  -1.051902530631e-02 5.781705743094e-02 0.000000000000e+00
  -1.011905964405e-02 8.178980987584e-03 0.000000000000e+00
  -7.643913045515e-03 -3.662380979577e-02 0.000000000000e+00
  -3.521384094927e-03 -7.033827977339e-02 0.000000000000e+00
  1.731860897512e-03 -8.910114779268e-02 0.000000000000e+00
  7.517402882788e-03 -9.241604430765e-02 0.000000000000e+00
  1.312282850245e-02 -8.321887709076e-02 0.000000000000e+00
  1.772494363254e-02 -6.684720425399e-02 0.000000000000e+00
  2.047475499695e-02 -4.918665118120e-02 0.000000000000e+00
  2.065580135010e-02 -3.467915100629e-02 0.000000000000e+00
  1.786403256452e-02 -2.498687081343e-02 0.000000000000e+00
  1.214416081398e-02 -1.881899430953e-02 0.000000000000e+00
  4.030661713132e-03 -1.290685502433e-02 0.000000000000e+00
  -5.530354811561e-03 -3.653480887727e-03 0.000000000000e+00
  -1.536745074950e-02 1.119890086033e-02 0.000000000000e+00
  -2.433217991927e-02 3.143693383383e-02 0.000000000000e+00
  -3.153890236399e-02 5.408649917198e-02 0.000000000000e+00
  -3.652604485409e-02 7.402468114957e-02 0.000000000000e+00
  -3.929791574507e-02 8.535211085605e-02 0.000000000000e+00
  -4.024985838666e-02 8.320110741201e-02 0.000000000000e+00
  -4.001430966756e-02 6.547553291835e-02 0.000000000000e+00
  -3.927671424657e-02 3.391793733162e-02 0.000000000000e+00
  -3.860184253286e-02 -5.988368832481e-03 0.000000000000e+00
  -3.829715798889e-02 -4.638952624993e-02 0.000000000000e+00
  -3.833152137384e-02 -7.928150388431e-02 0.000000000000e+00
  -3.832567983656e-02 -9.876829922889e-02 0.000000000000e+00
  -3.762896991061e-02 -1.025348464043e-01 0.000000000000e+00
  -3.548562354076e-02 -9.208451542268e-02 0.000000000000e+00
  -3.126876776406e-02 -7.181310782345e-02 0.000000000000e+00
  -2.472560539524e-02 -4.737873008737e-02 0.000000000000e+00
  -1.615150795560e-02 -2.394758159687e-02 0.000000000000e+00
  -6.416470316581e-03 -4.807701995208e-03 0.000000000000e+00
  3.187031704321e-03 9.321873872626e-03 0.000000000000e+00
  1.123820910133e-02 2.012689861458e-02 0.000000000000e+00
  1.653292622518e-02 3.070653580964e-02 0.000000000000e+00
  1.837322975083e-02 4.402316232915e-02 0.000000000000e+00
  1.672121370026e-02 6.131042100461e-02 0.000000000000e+00
  1.218513048909e-02 8.107313610892e-02 0.000000000000e+00
  5.855223242864e-03 9.915630561189e-02 0.000000000000e+00
  -9.537658857685e-04 1.099335322930e-01 0.000000000000e+00
  -6.973672709502e-03 1.081677040108e-01 0.000000000000e+00
  -1.119059843385e-02 9.080862852167e-02 0.000000000000e+00
  -1.294671918388e-02 5.806861736474e-02 0.000000000000e+00
  -1.194921413114e-02 1.347888676754e-02 0.000000000000e+00
  -8.243831076348e-03 -3.695131354525e-02 0.000000000000e+00
  -2.210080808426e-03 -8.607422371741e-02 0.000000000000e+00
  5.415332724701e-03 -1.269787319449e-01 0.000000000000e+00
  1.354237900071e-02 -1.540543790659e-01 0.000000000000e+00
  2.083189100299e-02 -1.636207997755e-01 0.000000000000e+00
  2.591995595474e-02 -1.542234691130e-01 0.000000000000e+00
  2.769321278291e-02 -1.267866138458e-01 0.000000000000e+00
  2.549419693093e-02 -8.468801468125e-02 0.000000000000e+00
  1.917279664227e-02 -3.356757277109e-02 0.000000000000e+00
  9.004218412792e-03 1.944477664162e-02 0.000000000000e+00
  -4.416663320040e-03 6.718455398971e-02 0.000000000000e+00
  -2.019687784119e-02 1.042161281654e-01 0.000000000000e+00
  -3.707363666275e-02 1.281462820950e-01 0.000000000000e+00
  -5.335916129122e-02 1.398056278794e-01 0.000000000000e+00
  -6.705421259544e-02 1.421706244387e-01 0.000000000000e+00
  -7.620588907296e-02 1.385691756452e-01 0.000000000000e+00
  -7.943496459125e-02 1.310509469742e-01 0.000000000000e+00
  -7.643126546091e-02 1.196402005454e-01 0.000000000000e+00
  -6.819163459802e-02 1.027130813229e-01 0.000000000000e+00
  -5.686615686868e-02 7.827041236609e-02 0.000000000000e+00
  -4.523248125245e-02 4.559029750143e-02 0.000000000000e+00
  -3.595998437203e-02 6.633635908630e-03 0.000000000000e+00
  -3.089901412246e-02 -3.340860784684e-02 0.000000000000e+00
  -3.061687127870e-02 -6.685998084589e-02 0.000000000000e+00
  -3.431601526414e-02 -8.562090476694e-02 0.000000000000e+00
  -4.014618976843e-02 -8.399101576377e-02 0.000000000000e+00
  -4.580347851425e-02 -6.118542653366e-02 0.000000000000e+00
  -4.923265102343e-02 -2.238091823145e-02 0.000000000000e+00
  0.000000000000e+00 0.000000000000e+00 0.000000000000e+00
  0.000000000000e+00 0.000000000000e+00 0.000000000000e+00
  -8.496648459716e-02 1.727549613697e-02 0.000000000000e+00
  -8.064159349055e-02 4.710983663627e-02 0.000000000000e+00
  -7.327149897237e-02 6.433734717724e-02 0.000000000000e+00
  -6.503019209736e-02 6.503019209736e-02 0.000000000000e+00
  -5.832510590107e-02 4.999073247071e-02 0.000000000000e+00
  -5.505493282887e-02 2.371845221751e-02 0.000000000000e+00
  -5.601251379341e-02 -7.746207602343e-03 0.000000000000e+00
  -6.062174147392e-02 -3.904048203069e-02 0.000000000000e+00
  -6.709545811720e-02 -6.688137915314e-02 0.000000000000e+00
  -7.296670030022e-02 -9.030318062832e-02 0.000000000000e+00
  -7.582421305564e-02 -1.099145549587e-01 0.000000000000e+00
  -7.401581061423e-02 -1.266572761098e-01 0.000000000000e+00
  -6.709352348838e-02 -1.405953202501e-01 0.000000000000e+00
  -5.586426565429e-02 -1.501760383009e-01 0.000000000000e+00
  -4.205463102138e-02 -1.522659547867e-01 0.000000000000e+00
  -2.774554488424e-02 -1.430464836996e-01 0.000000000000e+00
  -1.481360162911e-02 -1.195250306578e-01 0.000000000000e+00
  -4.583223071509e-03 -8.107850707613e-02 0.000000000000e+00
  2.240427383722e-03 -3.033227581413e-02 0.000000000000e+00
  5.444752992447e-03 2.705564282121e-02 0.000000000000e+00
  5.156484533757e-03 8.360551924820e-02 0.000000000000e+00