# vtk DataFile Version 3.0
Karman Output
ASCII
DATASET RECTILINEAR_GRID
DIMENSIONS 101 101 1
X_COORDINATES 101 float
   0.000000000000e+00   9.900990099010e-03   1.980198019802e-02   2.970297029703e-02   3.960396039604e-02   4.950495049505e-02   5.940594059406e-02   6.930693069307e-02   7.920792079208e-02   8.910891089109e-02   9.900990099010e-02   1.089108910891e-01   1.188118811881e-01   1.287128712871e-01   1.386138613861e-01   1.485148514851e-01   1.584158415842e-01   1.683168316832e-01   1.782178217822e-01   1.881188118812e-01   1.980198019802e-01   2.079207920792e-01   2.178217821782e-01   2.277227722772e-01   2.376237623762e-01   2.475247524752e-01   2.574257425743e-01   2.673267326733e-01   2.772277227723e-01   2.871287128713e-01   2.970297029703e-01   3.069306930693e-01   3.168316831683e-01   3.267326732673e-01   3.366336633663e-01   3.465346534653e-01   3.564356435644e-01   3.663366336634e-01   3.762376237624e-01   3.861386138614e-01   3.960396039604e-01   4.059405940594e-01   4.158415841584e-01   4.257425742574e-01   4.356435643564e-01   4.455445544554e-01   4.554455445545e-01   4.653465346535e-01   4.752475247525e-01   4.851485148515e-01   4.950495049505e-01   5.049504950495e-01   5.148514851485e-01   5.247524752475e-01   5.346534653465e-01   5.445544554455e-01   5.544554455446e-01   5.643564356436e-01   5.742574257426e-01   5.841584158416e-01   5.940594059406e-01   6.039603960396e-01   6.138613861386e-01   6.237623762376e-01   6.336633663366e-01   6.435643564356e-01   6.534653465347e-01   6.633663366337e-01   6.732673267327e-01   6.831683168317e-01   6.930693069307e-01   7.029702970297e-01   7.128712871287e-01   7.227722772277e-01   7.326732673267e-01   7.425742574257e-01   7.524752475248e-01   7.623762376238e-01   7.722772277228e-01   7.821782178218e-01   7.920792079208e-01   8.019801980198e-01   8.118811881188e-01   8.217821782178e-01   8.316831683168e-01   8.415841584158e-01   8.514851485149e-01   8.613861386139e-01   8.712871287129e-01   8.811881188119e-01   8.910891089109e-01   9.009900990099e-01   9.108910891089e-01   9.207920792079e-01   9.306930693069e-01   9.405940594059e-01   9.504950495050e-01   9.603960396040e-01   9.702970297030e-01   9.801980198020e-01   9.900990099010e-01
Y_COORDINATES 101 float
   0.000000000000e+00   9.900990099010e-03   1.980198019802e-02   2.970297029703e-02   3.960396039604e-02   4.950495049505e-02   5.940594059406e-02   6.930693069307e-02   7.920792079208e-02   8.910891089109e-02   9.900990099010e-02   1.089108910891e-01   1.188118811881e-01   1.287128712871e-01   1.386138613861e-01   1.485148514851e-01   1.584158415842e-01   1.683168316832e-01   1.782178217822e-01   1.881188118812e-01   1.980198019802e-01   2.079207920792e-01   2.178217821782e-01   2.277227722772e-01   2.376237623762e-01   2.475247524752e-01   2.574257425743e-01   2.673267326733e-01   2.772277227723e-01   2.871287128713e-01   2.970297029703e-01   3.069306930693e-01   3.168316831683e-01   3.267326732673e-01   3.366336633663e-01   3.465346534653e-01   3.564356435644e-01   3.663366336634e-01   3.762376237624e-01   3.861386138614e-01   3.960396039604e-01   4.059405940594e-01   4.158415841584e-01   4.257425742574e-01   4.356435643564e-01   4.455445544554e-01   4.554455445545e-01   4.653465346535e-01   4.752475247525e-01   4.851485148515e-01   4.950495049505e-01   5.049504950495e-01   5.148514851485e-01   5.247524752475e-01   5.346534653465e-01   5.445544554455e-01   5.544554455446e-01   5.643564356436e-01   5.742574257426e-01   5.841584158416e-01   5.940594059406e-01   6.039603960396e-01   6.138613861386e-01   6.237623762376e-01   6.336633663366e-01   6.435643564356e-01   6.534653465347e-01   6.633663366337e-01   6.732673267327e-01   6.831683168317e-01   6.930693069307e-01   7.029702970297e-01   7.128712871287e-01   7.227722772277e-01   7.326732673267e-01   7.425742574257e-01   7.524752475248e-01   7.623762376238e-01   7.722772277228e-01   7.821782178218e-01   7.920792079208e-01   8.019801980198e-01   8.118811881188e-01   8.217821782178e-01   8.316831683168e-01   8.415841584158e-01   8.514851485149e-01   8.613861386139e-01   8.712871287129e-01   8.811881188119e-01   8.910891089109e-01   9.009900990099e-01   9.108910891089e-01   9.207920792079e-01   9.306930693069e-01   9.405940594059e-01   9.504950495050e-01   9.603960396040e-01   9.702970297030e-01   9.801980198020e-01   9.900990099010e-01
Z_COORDINATES 1 float
  0.000000000000e+00
POINT_DATA 10201
VECTORS E_field float
  0.000000000000e+00 0.000000000000e+00 0.000000000000e+00
  0.000000000000e+00 0.000000000000e+00 0.000000000000e+00
  0.000000000000e+00 0.000000000000e+00 0.000000000000e+00
  0.000000000000e+00 0.000000000000e+00 0.000000000000e+00
  0.000000000000e+00 0.000000000000e+00 0.000000000000e+00
  0.000000000000e+00 0.000000000000e+00 0.000000000000e+00
  0.000000000000e+00 0.000000000000e+00 0.000000000000e+00
  0.000000000000e+00 0.000000000000e+00 0.000000000000e+00
  0.000000000000e+00 0.000000000000e+00 0.000000000000e+00
  0.000000000000e+00 0.000000000000e+00 0.000000000000e+00
  0.000000000000e+00 0.000000000000e+00 0.000000000000e+00
  0.000000000000e+00 0.000000000000e+00 0.000000000000e+00
  0.000000000000e+00 0.000000000000e+00 0.000000000000e+00
  0.000000000000e+00 0.000000000000e+00 0.000000000000e+00
  0.000000000000e+00 0.000000000000e+00 0.000000000000e+00
  0.000000000000e+00 0.000000000000e+00 0.000000000000e+00
  0.000000000000e+00 0.000000000000e+00 0.000000000000e+00
  0.000000000000e+00 0.000000000000e+00 0.000000000000e+00
  0.000000000000e+00 0.000000000000e+00 0.000000000000e+00
  0.000000000000e+00 0.000000000000e+00 0.000000000000e+00
  0.000000000000e+00 0.000000000000e+00 0.000000000000e+00
  0.000000000000e+00 0.000000000000e+00 0.000000000000e+00
  0.000000000000e+00 0.000000000000e+00 0.000000000000e+00
  0.000000000000e+00 0.000000000000e+00 0.000000000000e+00
  0.000000000000e+00 0.000000000000e+00 0.000000000000e+00
  0.000000000000e+00 0.000000000000e+00 0.000000000000e+00
  0.000000000000e+00 0.000000000000e+00 0.000000000000e+00
  0.000000000000e+00 0.000000000000e+00 0.000000000000e+00
  0.000000000000e+00 0.000000000000e+00 0.000000000000e+00
  0.000000000000e+00 0.000000000000e+00 0.000000000000e+00
  0.000000000000e+00 0.000000000000e+00 0.000000000000e+00
  0.000000000000e+00 0.000000000000e+00 0.000000000000e+00
  0.000000000000e+00 0.000000000000e+00 0.000000000000e+00
  0.000000000000e+00 0.000000000000e+00 0.000000000000e+00
  0.000000000000e+00 0.000000000000e+00 0.000000000000e+00
  0.000000000000e+00 0.000000000000e+00 0.000000000000e+00
  0.000000000000e+00 0.000000000000e+00 0.000000000000e+00
  0.000000000000e+00 0.000000000000e+00 0.000000000000e+00
  0.000000000000e+00 0.000000000000e+00 0.000000000000e+00
  0.000000000000e+00 0.000000000000e+00 0.000000000000e+00
  0.000000000000e+00 0.000000000000e+00 0.000000000000e+00
  0.000000000000e+00 0.000000000000e+00 0.000000000000e+00
  0.000000000000e+00 0.000000000000e+00 0.000000000000e+00
  0.000000000000e+00 0.000000000000e+00 0.000000000000e+00
  0.000000000000e+00 0.000000000000e+00 0.000000000000e+00
  0.000000000000e+00 0.000000000000e+00 0.000000000000e+00
  0.000000000000e+00 0.000000000000e+00 0.000000000000e+00
  0.000000000000e+00 0.000000000000e+00 0.000000000000e+00
  0.000000000000e+00 0.000000000000e+00 0.000000000000e+00
  0.000000000000e+00 0.000000000000e+00 0.000000000000e+00
  0.000000000000e+00 0.000000000000e+00 0.000000000000e+00
  0.000000000000e+00 0.000000000000e+00 0.000000000000e+00
  0.000000000000e+00 0.000000000000e+00 0.000000000000e+00
  0.000000000000e+00 0.000000000000e+00 0.000000000000e+00
  0.000000000000e+00 0.000000000000e+00 0.000000000000e+00
  0.000000000000e+00 0.000000000000e+00 0.000000000000e+00
  0.000000000000e+00 0.000000000000e+00 0.000000000000e+00
  0.000000000000e+00 0.000000000000e+00 0.000000000000e+00
  0.000000000000e+00 0.000000000000e+00 0.000000000000e+00
  0.000000000000e+00 0.000000000000e+00 0.000000000000e+00
  0.000000000000e+00 0.000000000000e+00 0.000000000000e+00
  0.000000000000e+00 0.000000000000e+00 0.000000000000e+00
  0.000000000000e+00 0.000000000000e+00 0.000000000000e+00
  0.000000000000e+00 0.000000000000e+00 0.000000000000e+00
  0.000000000000e+00 0.000000000000e+00 0.000000000000e+00
  0.000000000000e+00 0.000000000000e+00 0.000000000000e+00
  0.000000000000e+00 0.000000000000e+00 0.000000000000e+00
  0.000000000000e+00 0.000000000000e+00 0.000000000000e+00
  0.000000000000e+00 0.000000000000e+00 0.000000000000e+00
  0.000000000000e+00 0.000000000000e+00 0.000000000000e+00
  0.000000000000e+00 0.000000000000e+00 0.000000000000e+00
  0.000000000000e+00 0.000000000000e+00 0.000000000000e+00
  0.000000000000e+00 0.000000000000e+00 0.000000000000e+00
  0.000000000000e+00 0.000000000000e+00 0.000000000000e+00
  0.000000000000e+00 0.000000000000e+00 0.000000000000e+00
  0.000000000000e+00 0.000000000000e+00 0.000000000000e+00
  0.000000000000e+00 0.000000000000e+00 0.000000000000e+00
  0.000000000000e+00 0.000000000000e+00 0.000000000000e+00
  0.000000000000e+00 0.000000000000e+00 0.000000000000e+00
  0.000000000000e+00 0.000000000000e+00 0.000000000000e+00
  0.000000000000e+00 0.000000000000e+00 0.000000000000e+00
  0.000000000000e+00 0.000000000000e+00 0.000000000000e+00
  0.000000000000e+00 0.000000000000e+00 0.000000000000e+00
  0.000000000000e+00 0.000000000000e+00 0.000000000000e+00
  0.000000000000e+00 0.000000000000e+00 0.000000000000e+00
  0.000000000000e+00 0.000000000000e+00 0.000000000000e+00
  0.000000000000e+00 0.000000000000e+00 0.000000000000e+00
  0.000000000000e+00 0.000000000000e+00 0.000000000000e+00
  0.000000000000e+00 0.000000000000e+00 0.000000000000e+00
  0.000000000000e+00 0.000000000000e+00 0.000000000000e+00
  0.000000000000e+00 0.000000000000e+00 0.000000000000e+00
  0.000000000000e+00 0.000000000000e+00 0.000000000000e+00
  0.000000000000e+00 0.000000000000e+00 0.000000000000e+00
  0.000000000000e+00 0.000000000000e+00 0.000000000000e+00
  0.000000000000e+00 0.000000000000e+00 0.000000000000e+00
  0.000000000000e+00 0.000000000000e+00 0.000000000000e+00
  0.000000000000e+00 0.000000000000e+00 0.000000000000e+00
  0.000000000000e+00 0.000000000000e+00 0.000000000000e+00
  0.000000000000e+00 0.000000000000e+00 0.000000000000e+00
  0.000000000000e+00 0.000000000000e+00 0.000000000000e+00
  0.000000000000e+00 0.000000000000e+00 0.000000000000e+00
  0.000000000000e+00 0.000000000000e+00 0.000000000000e+00
  -3.567587384102e-03 3.567587384102e-03 0.000000000000e+00
  -3.578396044245e-03 1.075585888761e-02 0.000000000000e+00
  -3.600477749265e-03 1.810710357282e-02 0.000000000000e+00
  -3.634829763256e-03 2.574332941146e-02 0.000000000000e+00
  -3.683041924073e-03 3.380912575413e-02 0.000000000000e+00
  -3.747283256621e-03 4.248263611838e-02 0.000000000000e+00
  -3.830208243026e-03 5.198520639013e-02 0.000000000000e+00
  -3.934677268980e-03 6.258995613052e-02 0.000000000000e+00
  -4.062866150123e-03 7.462736391384e-02 0.000000000000e+00
  -4.214171410924e-03 8.847358927352e-02 0.000000000000e+00
  -4.381764785213e-03 1.044947941608e-01 0.000000000000e+00
  -4.548436006365e-03 1.229290259902e-01 0.000000000000e+00
  -4.682516288218e-03 1.437157083386e-01 0.000000000000e+00
  -4.734017479426e-03 1.662962379809e-01 0.000000000000e+00
  -4.631312957602e-03 1.893837809134e-01 0.000000000000e+00
  -4.281509018234e-03 2.106833329157e-01 0.000000000000e+00
  -3.581629041478e-03 2.266265000123e-01 0.000000000000e+00
  -2.447502394832e-03 2.323795231383e-01 0.000000000000e+00
  -8.583022931637e-04 2.225245125007e-01 0.000000000000e+00
  1.100326066937e-03 1.926595903612e-01 0.000000000000e+00
  3.221985736285e-03 1.416371184130e-01 0.000000000000e+00
  5.215989213987e-03 7.351790753594e-02 0.000000000000e+00
  6.793129120146e-03 -1.961939797924e-03 0.000000000000e+00
  7.769591566242e-03 -7.119553584232e-02 0.000000000000e+00
  8.139893424468e-03 -1.205416683723e-01 0.000000000000e+00
  8.076718898819e-03 -1.408544241990e-01 0.000000000000e+00
  7.846888124856e-03 -1.308296792493e-01 0.000000000000e+00
  7.673886303321e-03 -9.766400398122e-02 0.000000000000e+00
  7.607495900108e-03 -5.465134284566e-02 0.000000000000e+00
  7.463466317039e-03 -1.667342676069e-02 0.000000000000e+00
  6.867280705829e-03 4.583182941795e-03 0.000000000000e+00
  5.388533596097e-03 3.838561278365e-03 0.000000000000e+00
  2.709871714160e-03 -1.716679793680e-02 0.000000000000e+00
  -1.240681164507e-03 -5.148344271980e-02 0.000000000000e+00
  -6.245119697891e-03 -9.005524055804e-02 0.000000000000e+00
  -1.184685729406e-02 -1.246916643769e-01 0.000000000000e+00
  -1.746584584811e-02 -1.499044715241e-01 0.000000000000e+00
  -2.252774824036e-02 -1.633609452374e-01 0.000000000000e+00
  -2.656702464446e-02 -1.653331669278e-01 0.000000000000e+00
  -2.928712354914e-02 -1.577432659627e-01 0.000000000000e+00
  -3.058071739185e-02 -1.432615628766e-01 0.000000000000e+00
  -3.052050565647e-02 -1.246458630493e-01 0.000000000000e+00
  -2.932967823405e-02 -1.043228120528e-01 0.000000000000e+00
  -2.733840738511e-02 -8.415659645127e-02 0.000000000000e+00
  -2.493270717628e-02 -6.536139627616e-02 0.000000000000e+00
  -2.250316866691e-02 -4.852374449628e-02 0.000000000000e+00
  -2.040052769836e-02 -3.369616551877e-02 0.000000000000e+00
  -1.890221471690e-02 -2.052288943700e-02 0.000000000000e+00
  -1.819071838932e-02 -8.370664504427e-03 0.000000000000e+00
  -1.834247036843e-02 3.546663953356e-03 0.000000000000e+00
  -1.932539959371e-02 1.605173679443e-02 0.000000000000e+00
  -2.100379373375e-02 2.989438680354e-02 0.000000000000e+00
  -2.314999664708e-02 4.564813390783e-02 0.000000000000e+00
  -2.546322857489e-02 6.361150265584e-02 0.000000000000e+00
  -2.759604738293e-02 8.371387224685e-02 0.000000000000e+00
  -2.918844790172e-02 1.054281418561e-01 0.000000000000e+00
  -2.990816098460e-02 1.277002441315e-01 0.000000000000e+00
  -2.949339628989e-02 1.489172821924e-01 0.000000000000e+00
  -2.779193482582e-02 1.669425397159e-01 0.000000000000e+00
  -2.478992040332e-02 1.792418464049e-01 0.000000000000e+00
  -2.062598035149e-02 1.831261516096e-01 0.000000000000e+00
  -1.558955508942e-02 1.761573107628e-01 0.000000000000e+00
  -1.010257954555e-02 1.567833556887e-01 0.000000000000e+00
  -4.679687976206e-03 1.252064331241e-01 0.000000000000e+00
  1.407677371800e-04 8.428166310133e-02 0.000000000000e+00
  3.895719072394e-03 3.997233619798e-02 0.000000000000e+00
  6.308124826991e-03 7.715010317686e-04 0.000000000000e+00
  7.370138888918e-03 -2.423356685468e-02 0.000000000000e+00
  7.354384829792e-03 -2.832934245500e-02 0.000000000000e+00
  6.731163481329e-03 -1.013366684788e-02 0.000000000000e+00
  6.011411262066e-03 2.482753201743e-02 0.000000000000e+00
  5.573967648240e-03 6.493433157672e-02 0.000000000000e+00
  5.547673121351e-03 9.572713132326e-02 0.000000000000e+00
  5.795948323135e-03 1.045383836790e-01 0.000000000000e+00
  6.005794980137e-03 8.473508199808e-02 0.000000000000e+00
  5.838154210351e-03 3.788102088490e-02 0.000000000000e+00
  5.073492533616e-03 -2.702302093546e-02 0.000000000000e+00
  3.694182951771e-03 -9.682410288095e-02 0.000000000000e+00
  1.877760134543e-03 -1.585864399569e-01 0.000000000000e+00
  -8.409116304989e-05 -2.032598311058e-01 0.000000000000e+00
  -1.896188450191e-03 -2.273658831934e-01 0.000000000000e+00
  -3.349865709777e-03 -2.324688016013e-01 0.000000000000e+00
  -4.360831469373e-03 -2.231947613644e-01 0.000000000000e+00
  -4.953790646756e-03 -2.049906919476e-01 0.000000000000e+00
  -5.216849477381e-03 -1.825488662229e-01 0.000000000000e+00
  -5.254705976965e-03 -1.591827906274e-01 0.000000000000e+00
  -5.158882835109e-03 -1.368961012512e-01 0.000000000000e+00
  -4.997235750865e-03 -1.167169798021e-01 0.000000000000e+00
  -4.815081024336e-03 -9.901624102186e-02 0.000000000000e+00
  -4.639832903231e-03 -8.374096717206e-02 0.000000000000e+00
  -4.485485139133e-03 -7.059649713946e-02 0.000000000000e+00
  -4.356702271917e-03 -5.919579375289e-02 0.000000000000e+00
  -4.252740805982e-03 -4.916174715383e-02 0.000000000000e+00
  -4.170657183058e-03 -4.017288506045e-02 0.000000000000e+00
  -4.107217892923e-03 -3.196865652057e-02 0.000000000000e+00
  -4.059635550342e-03 -2.433989735972e-02 0.000000000000e+00
  -4.025724027739e-03 -1.711855451164e-02 0.000000000000e+00
  -4.003914493924e-03 -1.016796698237e-02 0.000000000000e+00
  -3.993234301231e-03 -3.372463090347e-03 0.000000000000e+00
  0.000000000000e+00 0.000000000000e+00 0.000000000000e+00
  0.000000000000e+00 0.000000000000e+00 0.000000000000e+00
  -1.075585888761e-02 3.578396044246e-03 0.000000000000e+00
  -1.078872655484e-02 1.078872655484e-02 0.000000000000e+00
  -1.085585704216e-02 1.816344809792e-02 0.000000000000e+00
  -1.096023690796e-02 2.582571676615e-02 0.000000000000e+00
  -1.110661070678e-02 3.392132435909e-02 0.000000000000e+00
  -1.130142702595e-02 4.262949516515e-02 0.000000000000e+00
  -1.155252872764e-02 5.217237403146e-02 0.000000000000e+00
  -1.186825230575e-02 6.282298109326e-02 0.000000000000e+00
  -1.225467207121e-02 7.490894759771e-02 0.000000000000e+00
  -1.270926024203e-02 8.879789902127e-02 0.000000000000e+00
  -1.321055981876e-02 1.048393773641e-01 0.000000000000e+00
  -1.370575183424e-02 1.232463060235e-01 0.000000000000e+00
  -1.409844158791e-02 1.439251983407e-01 0.000000000000e+00
  -1.423714726288e-02 1.662769548449e-01 0.000000000000e+00
  -1.390570879548e-02 1.889689210602e-01 0.000000000000e+00
  -1.282521956780e-02 2.096678996019e-01 0.000000000000e+00
  -1.068858411649e-02 2.248054178981e-01 0.000000000000e+00
  -7.247692878700e-03 2.296255873681e-01 0.000000000000e+00
  -2.446468421695e-03 2.188880237122e-01 0.000000000000e+00
  3.451186797328e-03 1.884397955705e-01 0.000000000000e+00
  9.819733396592e-03 1.373667069351e-01 0.000000000000e+00
  1.578101492033e-02 6.983303401248e-02 0.000000000000e+00
  2.045939887352e-02 -4.532590133815e-03 0.000000000000e+00
  2.329102166598e-02 -7.243297074499e-02 0.000000000000e+00
  2.424252797184e-02 -1.206260416337e-01 0.000000000000e+00
  2.381533766578e-02 -1.402796861059e-01 0.000000000000e+00
  2.280332591810e-02 -1.301625748208e-01 0.000000000000e+00
  2.189216281945e-02 -9.724694348955e-02 0.000000000000e+00
  2.127636821043e-02 -5.438621832509e-02 0.000000000000e+00
  2.047718458678e-02 -1.599533807449e-02 0.000000000000e+00
  1.846073597431e-02 6.517728479372e-03 0.000000000000e+00
  1.401843528335e-02 7.825063541686e-03 0.000000000000e+00
  6.248730969921e-03 -1.070493400432e-02 0.000000000000e+00
  -5.064298221599e-03 -4.268172458123e-02 0.000000000000e+00
  -1.932212986685e-02 -7.959468851634e-02 0.000000000000e+00
  -3.525622616989e-02 -1.136163825164e-01 0.000000000000e+00
  -5.125276305536e-02 -1.393642279399e-01 0.000000000000e+00
  -6.571532834490e-02 -1.543767211315e-01 0.000000000000e+00
  -7.735145252086e-02 -1.586419904407e-01 0.000000000000e+00
  -8.533665521001e-02 -1.537291408365e-01 0.000000000000e+00
  -8.936675542386e-02 -1.419519939185e-01 0.000000000000e+00
  -8.963046764706e-02 -1.257519314822e-01 0.000000000000e+00
  -8.672883703321e-02 -1.073092016083e-01 0.000000000000e+00
  -8.155853005659e-02 -8.833178466305e-02 0.000000000000e+00
  -7.517464950323e-02 -6.997578875959e-02 0.000000000000e+00
  -6.865188983183e-02 -5.286165012123e-02 0.000000000000e+00
  -6.296213011163e-02 -3.715066050963e-02 0.000000000000e+00
  -5.887992532997e-02 -2.264891214174e-02 0.000000000000e+00
  -5.691913964345e-02 -8.916923758020e-03 0.000000000000e+00
  -5.729858697309e-02 4.624122553989e-03 0.000000000000e+00
  -5.993292781185e-02 1.859154827449e-02 0.000000000000e+00
  -6.444584893880e-02 3.354589058363e-02 0.000000000000e+00
  -7.020416489814e-02 4.990114897084e-02 0.000000000000e+00
  -7.637277750518e-02 6.784033207864e-02 0.000000000000e+00
  -8.199063475182e-02 8.723571881539e-02 0.000000000000e+00
  -8.606647077306e-02 1.075745317562e-01 0.000000000000e+00
  -8.768969020326e-02 1.278967866712e-01 0.000000000000e+00
  -8.614617942706e-02 1.467624641120e-01 0.000000000000e+00
  -8.102321639159e-02 1.622729332345e-01 0.000000000000e+00
  -7.228670363194e-02 1.721729256517e-01 0.000000000000e+00
  -6.032024674928e-02 1.740646753865e-01 0.000000000000e+00
  -4.592367849361e-02 1.657857934366e-01 0.000000000000e+00
  -3.026762609884e-02 1.460118450536e-01 0.000000000000e+00
  -1.478793003173e-02 1.150753561072e-01 0.000000000000e+00
  -9.951406748448e-04 7.579949503781e-02 0.000000000000e+00
  9.805100632458e-03 3.389931161270e-02 0.000000000000e+00
  1.682870949261e-02 -2.591489001428e-03 0.000000000000e+00
  2.005308923615e-02 -2.515697062905e-02 0.000000000000e+00
  2.025167578606e-02 -2.758877117254e-02 0.000000000000e+00
  1.875818388776e-02 -8.757524884150e-03 0.000000000000e+00
  1.701692211000e-02 2.591240405045e-02 0.000000000000e+00
  1.608766503041e-02 6.521616023698e-02 0.000000000000e+00
  1.630857097462e-02 9.525069124561e-02 0.000000000000e+00
  1.725501191615e-02 1.038201076134e-01 0.000000000000e+00
  1.800021869879e-02 8.449830462412e-02 0.000000000000e+00
  1.755317705763e-02 3.873248066981e-02 0.000000000000e+00
  1.528183812701e-02 -2.483848011302e-02 0.000000000000e+00
  1.115150851991e-02 -9.349900451444e-02 0.000000000000e+00
  5.702579457264e-03 -1.546461864435e-01 0.000000000000e+00
  -1.892651167810e-04 -1.993463887476e-01 0.000000000000e+00
  -5.639853462507e-03 -2.240166399188e-01 0.000000000000e+00
  -1.002275524906e-02 -2.299814658298e-01 0.000000000000e+00
  -1.308191959219e-02 -2.216119670332e-01 0.000000000000e+00
  -1.488695329173e-02 -2.041754934018e-01 0.000000000000e+00
  -1.569838992234e-02 -1.822895693074e-01 0.000000000000e+00
  -1.582845253636e-02 -1.592741684292e-01 0.000000000000e+00
  -1.555166064480e-02 -1.371773384827e-01 0.000000000000e+00
  -1.507253816117e-02 -1.170765121384e-01 0.000000000000e+00
  -1.452823336034e-02 -9.938316821288e-02 0.000000000000e+00
  -1.400208423639e-02 -8.407543722609e-02 0.000000000000e+00
  -1.353701514247e-02 -7.088144394343e-02 0.000000000000e+00
  -1.314781221322e-02 -5.942883274538e-02 0.000000000000e+00
  -1.283284574905e-02 -4.934763609144e-02 0.000000000000e+00
  -1.258366783197e-02 -4.031825766284e-02 0.000000000000e+00
  -1.239078133050e-02 -3.207960970979e-02 0.000000000000e+00
  -1.224592249488e-02 -2.442138534869e-02 0.000000000000e+00
  -1.214258262848e-02 -1.717431791167e-02 0.000000000000e+00
  -1.207607931390e-02 -1.020051643073e-02 0.000000000000e+00
  -1.204350167423e-02 -3.383171474351e-03 0.000000000000e+00
  0.000000000000e+00 0.000000000000e+00 0.000000000000e+00
  0.000000000000e+00 0.000000000000e+00 0.000000000000e+00
  -1.810710357282e-02 3.600477749265e-03 0.000000000000e+00
  -1.816344809792e-02 1.085585704216e-02 0.000000000000e+00
  -1.827845784038e-02 1.827845784038e-02 0.000000000000e+00
  -1.845707084768e-02 2.599369989679e-02 0.000000000000e+00
  -1.870707848084e-02 3.414972266044e-02 0.000000000000e+00
  -1.903898780912e-02 4.292782251124e-02 0.000000000000e+00
  -1.946540718890e-02 5.255156776684e-02 0.000000000000e+00
  -1.999933753906e-02 6.329344128615e-02 0.000000000000e+00
  -2.064930155598e-02 7.547487118721e-02 0.000000000000e+00
  -2.140859780856e-02 8.944585985516e-02 0.000000000000e+00
  -2.223812772023e-02 1.055222460186e-01 0.000000000000e+00
  -2.304582234326e-02 1.238663240075e-01 0.000000000000e+00
  -2.366639016067e-02 1.443184379278e-01 0.000000000000e+00
  -2.384246744903e-02 1.661984982211e-01 0.000000000000e+00
  -2.320998013934e-02 1.880834519069e-01 0.000000000000e+00
  -2.130418667963e-02 2.075670860679e-01 0.000000000000e+00
  -1.762063259375e-02 2.210860418950e-01 0.000000000000e+00
  -1.176201311895e-02 2.240454526586e-01 0.000000000000e+00
  -3.657754750753e-03 2.115626755965e-01 0.000000000000e+00
  6.227973186109e-03 1.799817605304e-01 0.000000000000e+00
  1.683142163818e-02 1.288527469239e-01 0.000000000000e+00
  2.667056672034e-02 6.254656741777e-02 0.000000000000e+00
  3.426388089445e-02 -9.517821666407e-03 0.000000000000e+00
  3.863772134388e-02 -7.465320245428e-02 0.000000000000e+00
  3.968994038553e-02 -1.204095352719e-01 0.000000000000e+00
  3.821076657560e-02 -1.385898283517e-01 0.000000000000e+00
  3.550819580356e-02 -1.281378500552e-01 0.000000000000e+00
  3.277566700946e-02 -9.562797636228e-02 0.000000000000e+00
  3.047826357807e-02 -5.309198741184e-02 0.000000000000e+00
  2.804507291163e-02 -1.405719469735e-02 0.000000000000e+00
  2.402530341751e-02 1.061580320947e-02 0.000000000000e+00
  1.665253900428e-02 1.554205391717e-02 0.000000000000e+00
  4.571526614357e-03 1.428792326422e-03 0.000000000000e+00
  -1.258545515890e-02 -2.634543994153e-02 0.000000000000e+00
  -3.399693426319e-02 -6.026166239586e-02 0.000000000000e+00
  -5.786101852685e-02 -9.315122805121e-02 0.000000000000e+00
  -8.187270973694e-02 -1.198211542771e-01 0.000000000000e+00
  -1.037535067700e-01 -1.375764324189e-01 0.000000000000e+00
  -1.216619707342e-01 -1.458976909314e-01 0.000000000000e+00
  -1.344195117056e-01 -1.457306965645e-01 0.000000000000e+00
  -1.415738386440e-01 -1.387660108684e-01 0.000000000000e+00
  -1.433539153246e-01 -1.268941254006e-01 0.000000000000e+00
  -1.405584403102e-01 -1.118641130275e-01 0.000000000000e+00
  -1.344006563280e-01 -9.510496385122e-02 0.000000000000e+00
  -1.263266170143e-01 -7.766052903654e-02 0.000000000000e+00
  -1.178280457852e-01 -6.019824031206e-02 0.000000000000e+00
  -1.102720289657e-01 -4.305984642383e-02 0.000000000000e+00
  -1.047634661447e-01 -2.633049342855e-02 0.000000000000e+00
  -1.020471936213e-01 -9.912400349572e-03 0.000000000000e+00
  -1.024504597442e-01 6.402312826446e-03 0.000000000000e+00
  -1.058640077843e-01 2.286124698165e-02 0.000000000000e+00
  -1.117596602494e-01 3.968476543080e-02 0.000000000000e+00
  -1.192423846367e-01 5.700331429805e-02 0.000000000000e+00
  -1.271345925105e-01 7.479898694413e-02 0.000000000000e+00
  -1.340895887739e-01 9.284991708581e-02 0.000000000000e+00
  -1.387293842340e-01 1.106759645428e-01 0.000000000000e+00
  -1.397987033996e-01 1.274878920427e-01 0.000000000000e+00
  -1.363213408681e-01 1.421504850136e-01 0.000000000000e+00
  -1.277394150884e-01 1.531800231412e-01 0.000000000000e+00
  -1.140163596547e-01 1.588062672326e-01 0.000000000000e+00
  -9.569329135030e-02 1.571418083624e-01 0.000000000000e+00
  -7.389709044475e-02 1.465158911041e-01 0.000000000000e+00
  -5.029202166488e-02 1.260206260696e-01 0.000000000000e+00
  -2.694345627870e-02 9.623831353982e-02 0.000000000000e+00
  -6.048585868466e-03 5.994887777342e-02 0.000000000000e+00
  1.047698518180e-02 2.242411647889e-02 0.000000000000e+00
  2.147801614638e-02 -9.140933716705e-03 0.000000000000e+00
  2.692769385971e-02 -2.728158338457e-02 0.000000000000e+00
  2.798485284919e-02 -2.671990396398e-02 0.000000000000e+00
  2.663822340807e-02 -6.786270757220e-03 0.000000000000e+00
  2.502267548232e-02 2.729795962508e-02 0.000000000000e+00
  2.466592145640e-02 6.511661576693e-02 0.000000000000e+00
  2.597925470687e-02 9.381599652057e-02 0.000000000000e+00
  2.820571858541e-02 1.020818975181e-01 0.000000000000e+00
  2.983541818036e-02 8.386160834166e-02 0.000000000000e+00
  2.929468696436e-02 4.035694980940e-02 0.000000000000e+00
  2.560944182262e-02 -2.050636518028e-02 0.000000000000e+00
  1.877544795384e-02 -8.686679597131e-02 0.000000000000e+00
  9.715190427130e-03 -1.467692083973e-01 0.000000000000e+00
  -1.112827584235e-04 -1.915050490342e-01 0.000000000000e+00
  -9.234718554165e-03 -2.172839554907e-01 0.000000000000e+00
  -1.660854277601e-02 -2.249574242495e-01 0.000000000000e+00
  -2.179408516552e-02 -2.183913018808e-01 0.000000000000e+00
  -2.489107223202e-02 -2.024941377881e-01 0.000000000000e+00
  -2.632005888034e-02 -1.817305016422e-01 0.000000000000e+00
  -2.659439806947e-02 -1.594288342913e-01 0.000000000000e+00
  -2.617097092743e-02 -1.377228916543e-01 0.000000000000e+00
  -2.539361890005e-02 -1.177874334779e-01 0.000000000000e+00
  -2.449489231273e-02 -1.001152782615e-01 0.000000000000e+00
  -2.361740924036e-02 -8.474695937375e-02 0.000000000000e+00
  -2.283595185376e-02 -7.145644827630e-02 0.000000000000e+00
  -2.217789958561e-02 -5.990108360992e-02 0.000000000000e+00
  -2.164262441094e-02 -4.972562686575e-02 0.000000000000e+00
  -2.121739895476e-02 -4.061467026179e-02 0.000000000000e+00
  -2.088713658115e-02 -3.230634598592e-02 0.000000000000e+00
  -2.063844036363e-02 -2.458820412570e-02 0.000000000000e+00
  -2.046066138347e-02 -1.728861798123e-02 0.000000000000e+00
  -2.034609828615e-02 -1.026728277308e-02 0.000000000000e+00
  -2.028993750676e-02 -3.405143551054e-03 0.000000000000e+00
  0.000000000000e+00 0.000000000000e+00 0.000000000000e+00
  0.000000000000e+00 0.000000000000e+00 0.000000000000e+00
  -2.574332941146e-02 3.634829763256e-03 0.000000000000e+00
  -2.582571676615e-02 1.096023690796e-02 0.000000000000e+00
  -2.599369989679e-02 1.845707084768e-02 0.000000000000e+00
  -2.625404767568e-02 2.625404767568e-02 0.000000000000e+00
  -2.661733065664e-02 3.450266549567e-02 0.000000000000e+00
  -2.709762047729e-02 4.338707882494e-02 0.000000000000e+00
  -2.771141092557e-02 5.313252128121e-02 0.000000000000e+00
  -2.847478370579e-02 6.400979090215e-02 0.000000000000e+00
  -2.939601685800e-02 7.632971874033e-02 0.000000000000e+00
  -3.046018692956e-02 9.041447862616e-02 0.000000000000e+00
  -3.160524004903e-02 1.065282102787e-01 0.000000000000e+00
  -3.269357428963e-02 1.247563886110e-01 0.000000000000e+00
  -3.348409378560e-02 1.448394606377e-01 0.000000000000e+00
  -3.360686722011e-02 1.659763262341e-01 0.000000000000e+00
  -3.254587770071e-02 1.866121470648e-01 0.000000000000e+00
  -2.965369575281e-02 2.042404155023e-01 0.000000000000e+00
  -2.424380768097e-02 2.153192703028e-01 0.000000000000e+00
  -1.579900275778e-02 2.155087998528e-01 0.000000000000e+00
  -4.273242319681e-03 2.004693095960e-01 0.000000000000e+00
  9.629634037259e-03 1.672865222370e-01 0.000000000000e+00
  2.437684862073e-02 1.161973221817e-01 0.000000000000e+00