# vtk DataFile Version 3.0
Karman Output
ASCII
DATASET RECTILINEAR_GRID
DIMENSIONS 101 101 1
X_COORDINATES 101 float
   0.000000000000e+00   9.900990099010e-03   1.980198019802e-02   2.970297029703e-02   3.960396039604e-02   4.950495049505e-02   5.940594059406e-02   6.930693069307e-02   7.920792079208e-02   8.910891089109e-02   9.900990099010e-02   1.089108910891e-01   1.188118811881e-01   1.287128712871e-01   1.386138613861e-01   1.485148514851e-01   1.584158415842e-01   1.683168316832e-01   1.782178217822e-01   1.881188118812e-01   1.980198019802e-01   2.079207920792e-01   2.178217821782e-01   2.277227722772e-01   2.376237623762e-01   2.475247524752e-01   2.574257425743e-01   2.673267326733e-01   2.772277227723e-01   2.871287128713e-01   2.970297029703e-01   3.069306930693e-01   3.168316831683e-01   3.267326732673e-01   3.366336633663e-01   3.465346534653e-01   3.564356435644e-01   3.663366336634e-01   3.762376237624e-01   3.861386138614e-01   3.960396039604e-01   4.059405940594e-01   4.158415841584e-01   4.257425742574e-01   4.356435643564e-01   4.455445544554e-01   4.554455445545e-01   4.653465346535e-01   4.752475247525e-01   4.851485148515e-01   4.950495049505e-01   5.049504950495e-01   5.148514851485e-01   5.247524752475e-01   5.346534653465e-01   5.445544554455e-01   5.544554455446e-01   5.643564356436e-01   5.742574257426e-01   5.841584158416e-01   5.940594059406e-01   6.039603960396e-01   6.138613861386e-01   6.237623762376e-01   6.336633663366e-01   6.435643564356e-01   6.534653465347e-01   6.633663366337e-01   6.732673267327e-01   6.831683168317e-01   6.930693069307e-01   7.029702970297e-01   7.128712871287e-01   7.227722772277e-01   7.326732673267e-01   7.425742574257e-01   7.524752475248e-01   7.623762376238e-01   7.722772277228e-01   7.821782178218e-01   7.920792079208e-01   8.019801980198e-01   8.118811881188e-01   8.217821782178e-01   8.316831683168e-01   8.415841584158e-01   8.514851485149e-01   8.613861386139e-01   8.712871287129e-01   8.811881188119e-01   8.910891089109e-01   9.009900990099e-01   9.108910891089e-01   9.207920792079e-01   9.306930693069e-01   9.405940594059e-01   9.504950495050e-01   9.603960396040e-01   9.702970297030e-01   9.801980198020e-01   9.900990099010e-01
Y_COORDINATES 101 float
   0.000000000000e+00   9.900990099010e-03   1.980198019802e-02   2.970297029703e-02   3.960396039604e-02   4.950495049505e-02   5.940594059406e-02   6.930693069307e-02   7.920792079208e-02   8.910891089109e-02   9.900990099010e-02   1.089108910891e-01   1.188118811881e-01   1.287128712871e-01   1.386138613861e-01   1.485148514851e-01   1.584158415842e-01   1.683168316832e-01   1.782178217822e-01   1.881188118812e-01   1.980198019802e-01   2.079207920792e-01   2.178217821782e-01   2.277227722772e-01   2.376237623762e-01   2.475247524752e-01   2.574257425743e-01   2.673267326733e-01   2.772277227723e-01   2.871287128713e-01   2.970297029703e-01   3.069306930693e-01   3.168316831683e-01   3.267326732673e-01   3.366336633663e-01   3.465346534653e-01   3.564356435644e-01   3.663366336634e-01   3.762376237624e-01   3.861386138614e-01   3.960396039604e-01   4.059405940594e-01   4.158415841584e-01   4.257425742574e-01   4.356435643564e-01   4.455445544554e-01   4.554455445545e-01   4.653465346535e-01   4.752475247525e-01   4.851485148515e-01   4.950495049505e-01   5.049504950495e-01   5.148514851485e-01   5.247524752475e-01   5.346534653465e-01   5.445544554455e-01   5.544554455446e-01   5.643564356436e-01   5.742574257426e-01   5.841584158416e-01   5.940594059406e-01   6.039603960396e-01   6.138613861386e-01   6.237623762376e-01   6.336633663366e-01   6.435643564356e-01   6.534653465347e-01   6.633663366337e-01   6.732673267327e-01   6.831683168317e-01   6.930693069307e-01   7.029702970297e-01   7.128712871287e-01   7.227722772277e-01   7.326732673267e-01   7.425742574257e-01   7.524752475248e-01   7.623762376238e-01   7.722772277228e-01   7.821782178218e-01   7.920792079208e-01   8.019801980198e-01   8.118811881188e-01   8.217821782178e-01   8.316831683168e-01   8.415841584158e-01   8.514851485149e-01   8.613861386139e-01   8.712871287129e-01   8.811881188119e-01   8.910891089109e-01   9.009900990099e-01   9.108910891089e-01   9.207920792079e-01   9.306930693069e-01   9.405940594059e-01   9.504950495050e-01   9.603960396040e-01   9.702970297030e-01   9.801980198020e-01   9.900990099010e-01
Z_COORDINATES 1 float
  0.000000000000e+00
POINT_DATA 10201
VECTORS E_field float
  0.000000000000e+00 0.000000000000e+00 0.000000000000e+00
  0.000000000000e+00 0.000000000000e+00 0.000000000000e+00
  0.000000000000e+00 0.000000000000e+00 0.000000000000e+00
  0.000000000000e+00 0.000000000000e+00 0.000000000000e+00
  0.000000000000e+00 0.000000000000e+00 0.000000000000e+00
  0.000000000000e+00 0.000000000000e+00 0.000000000000e+00
  0.000000000000e+00 0.000000000000e+00 0.000000000000e+00
  0.000000000000e+00 0.000000000000e+00 0.000000000000e+00
  0.000000000000e+00 0.000000000000e+00 0.000000000000e+00
  0.000000000000e+00 0.000000000000e+00 0.000000000000e+00
  0.000000000000e+00 0.000000000000e+00 0.000000000000e+00
  0.000000000000e+00 0.000000000000e+00 0.000000000000e+00
  0.000000000000e+00 0.000000000000e+00 0.000000000000e+00
  0.000000000000e+00 0.000000000000e+00 0.000000000000e+00
  0.000000000000e+00 0.000000000000e+00 0.000000000000e+00
  0.000000000000e+00 0.000000000000e+00 0.000000000000e+00
  0.000000000000e+00 0.000000000000e+00 0.000000000000e+00
  0.000000000000e+00 0.000000000000e+00 0.000000000000e+00
  0.000000000000e+00 0.000000000000e+00 0.000000000000e+00
  0.000000000000e+00 0.000000000000e+00 0.000000000000e+00
  0.000000000000e+00 0.000000000000e+00 0.000000000000e+00
  0.000000000000e+00 0.000000000000e+00 0.000000000000e+00
  0.000000000000e+00 0.000000000000e+00 0.000000000000e+00
  0.000000000000e+00 0.000000000000e+00 0.000000000000e+00
  0.000000000000e+00 0.000000000000e+00 0.000000000000e+00
  0.000000000000e+00 0.000000000000e+00 0.000000000000e+00
  0.000000000000e+00 0.000000000000e+00 0.000000000000e+00
  0.000000000000e+00 0.000000000000e+00 0.000000000000e+00
  0.000000000000e+00 0.000000000000e+00 0.000000000000e+00
  0.000000000000e+00 0.000000000000e+00 0.000000000000e+00
  0.000000000000e+00 0.000000000000e+00 0.000000000000e+00
  0.000000000000e+00 0.000000000000e+00 0.000000000000e+00
  0.000000000000e+00 0.000000000000e+00 0.000000000000e+00
  0.000000000000e+00 0.000000000000e+00 0.000000000000e+00
  0.000000000000e+00 0.000000000000e+00 0.000000000000e+00
  0.000000000000e+00 0.000000000000e+00 0.000000000000e+00
  0.000000000000e+00 0.000000000000e+00 0.000000000000e+00
  0.000000000000e+00 0.000000000000e+00 0.000000000000e+00
  0.000000000000e+00 0.000000000000e+00 0.000000000000e+00
  0.000000000000e+00 0.000000000000e+00 0.000000000000e+00
  0.000000000000e+00 0.000000000000e+00 0.000000000000e+00
  0.000000000000e+00 0.000000000000e+00 0.000000000000e+00
  0.000000000000e+00 0.000000000000e+00 0.000000000000e+00
  0.000000000000e+00 0.000000000000e+00 0.000000000000e+00
  0.000000000000e+00 0.000000000000e+00 0.000000000000e+00
  0.000000000000e+00 0.000000000000e+00 0.000000000000e+00
  0.000000000000e+00 0.000000000000e+00 0.000000000000e+00
  0.000000000000e+00 0.000000000000e+00 0.000000000000e+00
  0.000000000000e+00 0.000000000000e+00 0.000000000000e+00
  0.000000000000e+00 0.000000000000e+00 0.000000000000e+00
  0.000000000000e+00 0.000000000000e+00 0.000000000000e+00
  0.000000000000e+00 0.000000000000e+00 0.000000000000e+00
  0.000000000000e+00 0.000000000000e+00 0.000000000000e+00
  0.000000000000e+00 0.000000000000e+00 0.000000000000e+00
  0.000000000000e+00 0.000000000000e+00 0.000000000000e+00
  0.000000000000e+00 0.000000000000e+00 0.000000000000e+00
  0.000000000000e+00 0.000000000000e+00 0.000000000000e+00
  0.000000000000e+00 0.000000000000e+00 0.000000000000e+00
  0.000000000000e+00 0.000000000000e+00 0.000000000000e+00
  0.000000000000e+00 0.000000000000e+00 0.000000000000e+00
  0.000000000000e+00 0.000000000000e+00 0.000000000000e+00
  0.000000000000e+00 0.000000000000e+00 0.000000000000e+00
  0.000000000000e+00 0.000000000000e+00 0.000000000000e+00
  0.000000000000e+00 0.000000000000e+00 0.000000000000e+00
  0.000000000000e+00 0.000000000000e+00 0.000000000000e+00
  0.000000000000e+00 0.000000000000e+00 0.000000000000e+00
  0.000000000000e+00 0.000000000000e+00 0.000000000000e+00
  0.000000000000e+00 0.000000000000e+00 0.000000000000e+00
  0.000000000000e+00 0.000000000000e+00 0.000000000000e+00
  0.000000000000e+00 0.000000000000e+00 0.000000000000e+00
  0.000000000000e+00 0.000000000000e+00 0.000000000000e+00
  0.000000000000e+00 0.000000000000e+00 0.000000000000e+00
  0.000000000000e+00 0.000000000000e+00 0.000000000000e+00
  0.000000000000e+00 0.000000000000e+00 0.000000000000e+00
  0.000000000000e+00 0.000000000000e+00 0.000000000000e+00
  0.000000000000e+00 0.000000000000e+00 0.000000000000e+00
  0.000000000000e+00 0.000000000000e+00 0.000000000000e+00
  0.000000000000e+00 0.000000000000e+00 0.000000000000e+00
  0.000000000000e+00 0.000000000000e+00 0.000000000000e+00
  0.000000000000e+00 0.000000000000e+00 0.000000000000e+00
  0.000000000000e+00 0.000000000000e+00 0.000000000000e+00
  0.000000000000e+00 0.000000000000e+00 0.000000000000e+00
  0.000000000000e+00 0.000000000000e+00 0.000000000000e+00
  0.000000000000e+00 0.000000000000e+00 0.000000000000e+00
  0.000000000000e+00 0.000000000000e+00 0.000000000000e+00
  0.000000000000e+00 0.000000000000e+00 0.000000000000e+00
  0.000000000000e+00 0.000000000000e+00 0.000000000000e+00
  0.000000000000e+00 0.000000000000e+00 0.000000000000e+00
  0.000000000000e+00 0.000000000000e+00 0.000000000000e+00
  0.000000000000e+00 0.000000000000e+00 0.000000000000e+00
  0.000000000000e+00 0.000000000000e+00 0.000000000000e+00
  0.000000000000e+00 0.000000000000e+00 0.000000000000e+00
  0.000000000000e+00 0.000000000000e+00 0.000000000000e+00
  0.000000000000e+00 0.000000000000e+00 0.000000000000e+00
  0.000000000000e+00 0.000000000000e+00 0.000000000000e+00
  0.000000000000e+00 0.000000000000e+00 0.000000000000e+00
  0.000000000000e+00 0.000000000000e+00 0.000000000000e+00
  0.000000000000e+00 0.000000000000e+00 0.000000000000e+00
  0.000000000000e+00 0.000000000000e+00 0.000000000000e+00
  0.000000000000e+00 0.000000000000e+00 0.000000000000e+00
  0.000000000000e+00 0.000000000000e+00 0.000000000000e+00
  0.000000000000e+00 0.000000000000e+00 0.000000000000e+00
  -8.831986958231e-03 8.831986958230e-03 0.000000000000e+00
  -9.331879842817e-03 2.778109192330e-02 0.000000000000e+00
  -1.034660411711e-02 5.065387145530e-02 0.000000000000e+00
  -1.187240641964e-02 8.014140919378e-02 0.000000000000e+00
  -1.383921133216e-02 1.185645428004e-01 0.000000000000e+00
  -1.607826387880e-02 1.669717699284e-01 0.000000000000e+00
  -1.832841268954e-02 2.240111898213e-01 0.000000000000e+00
  -2.028516127469e-02 2.851512710639e-01 0.000000000000e+00
  -2.167409055996e-02 3.428755529816e-01 0.000000000000e+00
  -2.231746123734e-02 3.881033749602e-01 0.000000000000e+00
  -2.216759113995e-02 4.124551034587e-01 0.000000000000e+00
  -2.129974752727e-02 4.104947823869e-01 0.000000000000e+00
  -1.987804214059e-02 3.810880266344e-01 0.000000000000e+00
  -1.811678839347e-02 3.275018511572e-01 0.000000000000e+00
  -1.625273421921e-02 2.564919900372e-01 0.000000000000e+00
  -1.452811531904e-02 1.769532352877e-01 0.000000000000e+00
  -1.317337956383e-02 9.858724658615e-02 0.000000000000e+00
  -1.237950732420e-02 3.066762007505e-02 0.000000000000e+00
  -1.226069597212e-02 -1.926982954805e-02 0.000000000000e+00
  -1.281960978714e-02 -4.686685604962e-02 0.000000000000e+00
  -1.393130855436e-02 -5.216718965292e-02 0.000000000000e+00
  -1.535654881521e-02 -3.995185960645e-02 0.000000000000e+00
  -1.678432136217e-02 -1.861003551544e-02 0.000000000000e+00
  -1.789295826369e-02 2.438590357565e-03 0.000000000000e+00
  -1.841315940581e-02 1.597021730308e-02 0.000000000000e+00
  -1.817655369194e-02 1.953833577595e-02 0.000000000000e+00
  -1.713913374040e-02 1.625829615500e-02 0.000000000000e+00
  -1.537720551878e-02 1.340481797586e-02 0.000000000000e+00
  -1.306067957675e-02 1.943061670610e-02 0.000000000000e+00
  -1.041226731164e-02 4.071480533954e-02 0.000000000000e+00
  -7.661809510865e-03 7.937595646245e-02 0.000000000000e+00
  -5.004466111564e-03 1.328495356559e-01 0.000000000000e+00
  -2.570716881559e-03 1.950315339046e-01 0.000000000000e+00
  -4.140998405526e-04 2.581540518749e-01 0.000000000000e+00
  1.481397868204e-03 3.144893380104e-01 0.000000000000e+00
  3.176826336364e-03 3.573894111437e-01 0.000000000000e+00
  4.741421588362e-03 3.817010839620e-01 0.000000000000e+00
  6.208158986873e-03 3.839097074520e-01 0.000000000000e+00
  7.527646659387e-03 3.623462489679e-01 0.000000000000e+00
  8.531988897025e-03 3.175605456861e-01 0.000000000000e+00
  8.928098728873e-03 2.527241338582e-01 0.000000000000e+00
  8.341565500278e-03 1.738173835747e-01 0.000000000000e+00
  6.419596787729e-03 8.938646561621e-02 0.000000000000e+00
  2.975257925616e-03 9.747161741660e-03 0.000000000000e+00
  -1.873289561628e-03 -5.440103848353e-02 0.000000000000e+00
  -7.628917230975e-03 -9.388451424829e-02 0.000000000000e+00
  -1.345522660493e-02 -1.032272721655e-01 0.000000000000e+00
  -1.834038958523e-02 -8.253243704564e-02 0.000000000000e+00
  -2.134669979063e-02 -3.830492827255e-02 0.000000000000e+00
  -2.186816004890e-02 1.742967349687e-02 0.000000000000e+00
  -1.980740555213e-02 6.977719821143e-02 0.000000000000e+00
  -1.560745855411e-02 1.046612686494e-01 0.000000000000e+00
  -1.012497777391e-02 1.122597407981e-01 0.000000000000e+00
  -4.389278910242e-03 8.899757564220e-02 0.000000000000e+00
  6.685393174789e-04 3.759474804624e-02 0.000000000000e+00
  4.426143116190e-03 -3.447812847351e-02 0.000000000000e+00
  6.659675117055e-03 -1.172673266204e-01 0.000000000000e+00
  7.502931697609e-03 -2.004770795727e-01 0.000000000000e+00
  7.314856860293e-03 -2.750114603892e-01 0.000000000000e+00
  6.519746124346e-03 -3.338448650366e-01 0.000000000000e+00
  5.479079664830e-03 -3.723611801099e-01 0.000000000000e+00
  4.425382725367e-03 -3.883335939072e-01 0.000000000000e+00
  3.455281775775e-03 -3.816923161281e-01 0.000000000000e+00
  2.558347416829e-03 -3.542279152731e-01 0.000000000000e+00
  1.656797580278e-03 -3.093759016980e-01 0.000000000000e+00
  6.422157401050e-04 -2.521417166290e-01 0.000000000000e+00
  -5.930721085988e-04 -1.890301695935e-01 0.000000000000e+00
  -2.128300077264e-03 -1.276454628901e-01 0.000000000000e+00
  -3.991041822607e-03 -7.562305998150e-02 0.000000000000e+00
  -6.142209026399e-03 -3.887281964619e-02 0.000000000000e+00
  -8.472641862321e-03 -1.965239072103e-02 0.000000000000e+00
  -1.081227599470e-02 -1.540706446036e-02 0.000000000000e+00
  -1.295149310267e-02 -1.923732864192e-02 0.000000000000e+00
  -1.467411724405e-02 -2.219543314060e-02 0.000000000000e+00
  -1.579991401290e-02 -1.668149395088e-02 0.000000000000e+00
  -1.622976137323e-02 4.489553043019e-04 0.000000000000e+00
  -1.598123392705e-02 2.642721083110e-02 0.000000000000e+00
  -1.520084474115e-02 5.339829702788e-02 0.000000000000e+00
  -1.414441280792e-02 7.113021203991e-02 0.000000000000e+00
  -1.312746950594e-02 7.040913971261e-02 0.000000000000e+00
  -1.245857530099e-02 4.577159115941e-02 0.000000000000e+00
  -1.237478839124e-02 -3.266757312270e-03 0.000000000000e+00
  -1.299719749800e-02 -7.251277047436e-02 0.000000000000e+00
  -1.431571292261e-02 -1.543376034118e-01 0.000000000000e+00
  -1.620041745177e-02 -2.391591353180e-01 0.000000000000e+00
  -1.842835344622e-02 -3.167991903992e-01 0.000000000000e+00
  -2.071469175168e-02 -3.777617481606e-01 0.000000000000e+00
  -2.274484288494e-02 -4.146042170459e-01 0.000000000000e+00
  -2.421195216438e-02 -4.233283893621e-01 0.000000000000e+00
  -2.486424019655e-02 -4.043497505275e-01 0.000000000000e+00
  -2.455720546267e-02 -3.624865692535e-01 0.000000000000e+00
  -2.329410262217e-02 -3.057299340428e-01 0.000000000000e+00
  -2.123498835929e-02 -2.431435629218e-01 0.000000000000e+00
  -1.866491217307e-02 -1.826914550483e-01 0.000000000000e+00
  -1.593019477742e-02 -1.297799608112e-01 0.000000000000e+00
  -1.336651170654e-02 -8.685100485971e-02 0.000000000000e+00
  -1.124447587387e-02 -5.381486001810e-02 0.000000000000e+00
  -9.747148135267e-03 -2.882923202336e-02 0.000000000000e+00
  -8.977007712445e-03 -9.017413235737e-03 0.000000000000e+00
  0.000000000000e+00 0.000000000000e+00 0.000000000000e+00
  0.000000000000e+00 0.000000000000e+00 0.000000000000e+00
  -2.778109192330e-02 9.331879842816e-03 0.000000000000e+00
  -2.930138922933e-02 2.930138922933e-02 0.000000000000e+00
  -3.237171149019e-02 5.321862068442e-02 0.000000000000e+00
  -3.695572949434e-02 8.368648027134e-02 0.000000000000e+00
  -4.281628765669e-02 1.228468347977e-01 0.000000000000e+00
  -4.942629654050e-02 1.715385393615e-01 0.000000000000e+00
  -5.599268337720e-02 2.282609560356e-01 0.000000000000e+00
  -6.160479842619e-02 2.884703684838e-01 0.000000000000e+00
  -6.545305853986e-02 3.447936449607e-01 0.000000000000e+00
  -6.702618991776e-02 3.884017850364e-01 0.000000000000e+00
  -6.620916704437e-02 4.111898004117e-01 0.000000000000e+00
  -6.325973085000e-02 4.079428056269e-01 0.000000000000e+00
  -5.870238749982e-02 3.776609546577e-01 0.000000000000e+00
  -5.320615208925e-02 3.236714339763e-01 0.000000000000e+00
  -4.749325261427e-02 2.527454535689e-01 0.000000000000e+00
  -4.228187717728e-02 1.737637774188e-01 0.000000000000e+00
  -3.823341684926e-02 9.637350837176e-02 0.000000000000e+00
  -3.587616292081e-02 2.973023212138e-02 0.000000000000e+00
  -3.550671907076e-02 -1.882069679650e-02 0.000000000000e+00
  -3.710166799341e-02 -4.516212606350e-02 0.000000000000e+00
  -4.028234608309e-02 -4.957954278213e-02 0.000000000000e+00
  -4.435994055229e-02 -3.703667174720e-02 0.000000000000e+00
  -4.845796966331e-02 -1.599942171670e-02 0.000000000000e+00
  -5.168095467785e-02 4.159598474877e-03 0.000000000000e+00
  -5.328347467281e-02 1.637193032284e-02 0.000000000000e+00
  -5.279670011410e-02 1.841324248361e-02 0.000000000000e+00
  -5.008659162387e-02 1.363586100557e-02 0.000000000000e+00
  -4.534050686881e-02 9.519240148613e-03 0.000000000000e+00
  -3.899685780411e-02 1.465601952663e-02 0.000000000000e+00
  -3.164016531538e-02 3.548429776521e-02 0.000000000000e+00
  -2.388368371411e-02 7.409952463483e-02 0.000000000000e+00
  -1.626002182551e-02 1.278449621958e-01 0.000000000000e+00
  -9.139514953080e-03 1.904818512626e-01 0.000000000000e+00
  -2.693025872021e-03 2.541006283956e-01 0.000000000000e+00
  3.093121004187e-03 3.108611169063e-01 0.000000000000e+00
  8.354097675469e-03 3.540612271112e-01 0.000000000000e+00
  1.324681501197e-02 3.785719554110e-01 0.000000000000e+00
  1.782662833665e-02 3.809922852881e-01 0.000000000000e+00
  2.191846139020e-02 3.598523504187e-01 0.000000000000e+00
  2.501648133865e-02 3.159520820686e-01 0.000000000000e+00
  2.626774904753e-02 2.526852199626e-01 0.000000000000e+00
  2.459904329425e-02 1.761115364895e-01 0.000000000000e+00
  1.901042972639e-02 9.460289502970e-02 0.000000000000e+00
  8.985261285864e-03 1.800023968907e-02 0.000000000000e+00
  -5.114265516506e-03 -4.370604207434e-02 0.000000000000e+00
  -2.183744371851e-02 -8.210070471374e-02 0.000000000000e+00
  -3.875940935301e-02 -9.226280661871e-02 0.000000000000e+00
  -5.295135875292e-02 -7.441979014475e-02 0.000000000000e+00
  -6.169818435424e-02 -3.466443931094e-02 0.000000000000e+00
  -6.324120871666e-02 1.585366919424e-02 0.000000000000e+00
  -5.729026001906e-02 6.334149933635e-02 0.000000000000e+00
  -4.511791338588e-02 9.472467388647e-02 0.000000000000e+00
  -2.919623441531e-02 1.007921757807e-01 0.000000000000e+00
  -1.250317226126e-02 7.803637959282e-02 0.000000000000e+00
  2.258302151299e-03 2.873665139200e-02 0.000000000000e+00
  1.326844509752e-02 -4.038777863565e-02 0.000000000000e+00
  1.985247581676e-02 -1.201752392517e-01 0.000000000000e+00
  2.236798701884e-02 -2.009279347938e-01 0.000000000000e+00
  2.182894746119e-02 -2.738334908354e-01 0.000000000000e+00
  1.944970269919e-02 -3.318484791448e-01 0.000000000000e+00
  1.627671485718e-02 -3.701439117418e-01 0.000000000000e+00
  1.299523565118e-02 -3.862156861613e-01 0.000000000000e+00
  9.904504979886e-03 -3.797493922758e-01 0.000000000000e+00
  6.996821619816e-03 -3.523662214219e-01 0.000000000000e+00
  4.070537264783e-03 -3.074097613677e-01 0.000000000000e+00
  8.367149584837e-04 -2.498594528192e-01 0.000000000000e+00
  -2.989572885456e-03 -1.862508577145e-01 0.000000000000e+00
  -7.610884973190e-03 -1.242682347149e-01 0.000000000000e+00
  -1.308502438946e-02 -7.166340699625e-02 0.000000000000e+00
  -1.928796942805e-02 -3.447836038964e-02 0.000000000000e+00
  -2.590908407385e-02 -1.509530249614e-02 0.000000000000e+00
  -3.247885801022e-02 -1.105474461664e-02 0.000000000000e+00
  -3.842682519752e-02 -1.550246419042e-02 0.000000000000e+00
  -4.316874522258e-02 -1.946575342569e-02 0.000000000000e+00
  -4.621916914603e-02 -1.523495297350e-02 0.000000000000e+00
  -4.731294673019e-02 5.260392714031e-04 0.000000000000e+00
  -4.650341236021e-02 2.529206504783e-02 0.000000000000e+00
  -4.419927296262e-02 5.144891422767e-02 0.000000000000e+00
  -4.111512384083e-02 6.893901378511e-02 0.000000000000e+00
  -3.813862563142e-02 6.860689645602e-02 0.000000000000e+00
  -3.614795237320e-02 4.491426695282e-02 0.000000000000e+00
  -3.583175093252e-02 -2.809421456113e-03 0.000000000000e+00
  -3.756128830089e-02 -7.061815985539e-02 0.000000000000e+00
  -4.134111101330e-02 -1.511338758938e-01 0.000000000000e+00
  -4.683207888874e-02 -2.349871904315e-01 0.000000000000e+00
  -5.341773236098e-02 -3.121575458191e-01 0.000000000000e+00
  -6.028559685578e-02 -3.732491899405e-01 0.000000000000e+00
  -6.651619719853e-02 -4.108560237900e-01 0.000000000000e+00
  -7.119351032831e-02 -4.209321602088e-01 0.000000000000e+00
  -7.354864393471e-02 -4.037385580422e-01 0.000000000000e+00
  -7.311989684169e-02 -3.638335435657e-01 0.000000000000e+00
  -6.987853767728e-02 -3.088874217356e-01 0.000000000000e+00
  -6.426123018146e-02 -2.476624969877e-01 0.000000000000e+00
  -5.708083178589e-02 -1.879229955642e-01 0.000000000000e+00
  -4.934145472220e-02 -1.350225147547e-01 0.000000000000e+00
  -4.202717214112e-02 -9.148641656819e-02 0.000000000000e+00
  -3.593982891304e-02 -5.738882737036e-02 0.000000000000e+00
  -3.162883670685e-02 -3.106358461589e-02 0.000000000000e+00
  -2.940674190979e-02 -9.775295863085e-03 0.000000000000e+00
  0.000000000000e+00 0.000000000000e+00 0.000000000000e+00
  0.000000000000e+00 0.000000000000e+00 0.000000000000e+00
  -5.065387145530e-02 1.034660411711e-02 0.000000000000e+00
  -5.321862068442e-02 3.237171149019e-02 0.000000000000e+00
  -5.835284484104e-02 5.835284484104e-02 0.000000000000e+00
  -6.592252334970e-02 9.070595262754e-02 0.000000000000e+00
  -7.545585298852e-02 1.312212502427e-01 0.000000000000e+00
  -8.601948342824e-02 1.803377632401e-01 0.000000000000e+00
  -9.627360934442e-02 2.362822449099e-01 0.000000000000e+00
  -1.047217711218e-01 2.945093564358e-01 0.000000000000e+00
  -1.100682511555e-01 3.479493971560e-01 0.000000000000e+00
  -1.115368308002e-01 3.882877438637e-01 0.000000000000e+00
  -1.090256944123e-01 4.079756823231e-01 0.000000000000e+00
  -1.030610057561e-01 4.022427988649e-01 0.000000000000e+00
  -9.460933426377e-02 3.703519465771e-01 0.000000000000e+00
  -8.485583845465e-02 3.157307108371e-01 0.000000000000e+00
  -7.502960896369e-02 2.451470477421e-01 0.000000000000e+00
  -6.629087824078e-02 1.674120770858e-01 0.000000000000e+00
  -5.964230651096e-02 9.202817664701e-02 0.000000000000e+00
  -5.582374112664e-02 2.789974453336e-02 0.000000000000e+00
  -5.518889568289e-02 -1.799449850229e-02 0.000000000000e+00
  -5.760564070508e-02 -4.197663041288e-02 0.000000000000e+00
  -6.243497716655e-02 -4.475502388159e-02 0.000000000000e+00
  -6.862005278042e-02 -3.159852056468e-02 0.000000000000e+00
  -7.487355124492e-02 -1.108604532369e-02 0.000000000000e+00
  -7.991447578411e-02 7.510131635600e-03 0.000000000000e+00
  -8.269040784802e-02 1.739984922098e-02 0.000000000000e+00
  -8.253190683270e-02 1.674004801145e-02 0.000000000000e+00
  -7.921370540613e-02 9.280745560940e-03 0.000000000000e+00
  -7.292813082761e-02 2.842696259723e-03 0.000000000000e+00
  -6.419566521044e-02 6.256448733774e-03 0.000000000000e+00
  -5.374055850081e-02 2.607206935998e-02 0.000000000000e+00
  -4.235295654287e-02 6.436766948148e-02 0.000000000000e+00
  -3.075510019988e-02 1.183552991190e-01 0.000000000000e+00
  -1.949228487467e-02 1.815881921447e-01 0.000000000000e+00
  -8.872291507033e-03 2.459278050705e-01 0.000000000000e+00
  1.029189169327e-03 3.033463126895e-01 0.000000000000e+00
  1.029411875480e-02 3.470501250903e-01 0.000000000000e+00
  1.902900344668e-02 3.719554554360e-01 0.000000000000e+00
  2.719144817634e-02 3.748665272615e-01 0.000000000000e+00
  3.440589784331e-02 3.546718258065e-01 0.000000000000e+00
  3.982240852456e-02 3.126180761719e-01 0.000000000000e+00
  4.210129136191e-02 2.524890754831e-01 0.000000000000e+00
  3.960969268169e-02 1.804679856304e-01 0.000000000000e+00
  3.086337169521e-02 1.045813807337e-01 0.000000000000e+00
  1.513908828306e-02 3.377120618919e-02 0.000000000000e+00
  -6.935772101108e-03 -2.330262098590e-02 0.000000000000e+00
  -3.307192988935e-02 -5.964478937921e-02 0.000000000000e+00
  -5.949481292889e-02 -7.137387284453e-02 0.000000000000e+00
  -8.166172822725e-02 -5.894985881909e-02 0.000000000000e+00
  -9.535987484855e-02 -2.768939808238e-02 0.000000000000e+00
  -9.784845643764e-02 1.291023414553e-02 0.000000000000e+00
  -8.865191707837e-02 5.113744642900e-02 0.000000000000e+00
  -6.971311314284e-02 7.581757618732e-02 0.000000000000e+00
  -4.484174716295e-02 7.890622835717e-02 0.000000000000e+00
  -1.865175145893e-02 5.703926887021e-02 0.000000000000e+00
  4.639100707368e-03 1.168143516158e-02 0.000000000000e+00
  2.214872682512e-02 -5.185233189348e-02 0.000000000000e+00
  3.274360732765e-02 -1.258895976534e-01 0.000000000000e+00
  3.688234090561e-02 -2.018678215913e-01 0.000000000000e+00
  3.605674311986e-02 -2.715289670710e-01 0.000000000000e+00
  3.210548875417e-02 -3.278225041007e-01 0.000000000000e+00
  2.665181050402e-02 -3.655432209501e-01 0.000000000000e+00
  2.079814183086e-02 -3.816812292694e-01 0.000000000000e+00
  1.507326577024e-02 -3.754682425777e-01 0.000000000000e+00
  9.541060135258e-03 -3.482074822231e-01 0.000000000000e+00
  3.968892120371e-03 -3.030700482613e-01 0.000000000000e+00
  -2.007358832378e-03 -2.449890927072e-01 0.000000000000e+00
  -8.742060795864e-03 -1.805602280434e-01 0.000000000000e+00
  -1.646529075594e-02 -1.176143223521e-01 0.000000000000e+00
  -2.520128673542e-02 -6.410718397090e-02 0.000000000000e+00
  -3.472954375052e-02 -2.630338136524e-02 0.000000000000e+00
  -4.459105025098e-02 -6.787660376215e-03 0.000000000000e+00
  -5.413284376587e-02 -3.250819286235e-03 0.000000000000e+00
  -6.258440969972e-02 -8.906856400088e-03 0.000000000000e+00
  -6.916706082991e-02 -1.473679006095e-02 0.000000000000e+00
  -7.323742745294e-02 -1.284312579183e-02 0.000000000000e+00
  -7.444921108306e-02 4.397733039816e-04 0.000000000000e+00
  -7.289219775829e-02 2.301178332050e-02 0.000000000000e+00
  -6.915457525604e-02 4.768743405515e-02 0.000000000000e+00
  -6.426828292691e-02 6.473005250671e-02 0.000000000000e+00
  -5.953474584955e-02 6.510582244766e-02 0.000000000000e+00
  -5.627260511879e-02 4.316252697220e-02 0.000000000000e+00
  -5.555849307389e-02 -2.087994961077e-03 0.000000000000e+00
  -5.803150055054e-02 -6.713704150541e-02 0.000000000000e+00
  -6.380108333498e-02 -1.450655887469e-01 0.000000000000e+00
  -7.245353511519e-02 -2.269120579227e-01 0.000000000000e+00
  -8.312119147078e-02 -3.029793685000e-01 0.000000000000e+00
  -9.458113396460e-02 -3.640995602709e-01 0.000000000000e+00
  -1.053806355154e-01 -4.029755515660e-01 0.000000000000e+00
  -1.140136118209e-01 -4.155023429975e-01 0.000000000000e+00
  -1.191632587578e-01 -4.016635947102e-01 0.000000000000e+00
  -1.199775866717e-01 -3.655229260769e-01 0.000000000000e+00
  -1.162912197885e-01 -3.141257652719e-01 0.000000000000e+00
  -1.086955306955e-01 -2.556371500402e-01 0.000000000000e+00
  -9.840995822144e-02 -1.974143133813e-01 0.000000000000e+00
  -8.699438940563e-02 -1.446861428171e-01 0.000000000000e+00
  -7.601222068864e-02 -1.001192398039e-01 0.000000000000e+00
  -6.676436357453e-02 -6.409120447686e-02 0.000000000000e+00
  -6.016417085989e-02 -3.527239243022e-02 0.000000000000e+00
  -5.674670232642e-02 -1.120605137927e-02 0.000000000000e+00
  0.000000000000e+00 0.000000000000e+00 0.000000000000e+00
  0.000000000000e+00 0.000000000000e+00 0.000000000000e+00
  -8.014140919378e-02 1.187240641964e-02 0.000000000000e+00
  -8.368648027134e-02 3.695572949434e-02 0.000000000000e+00
  -9.070595262754e-02 6.592252334970e-02 0.000000000000e+00
  -1.008888295064e-01 1.008888295064e-01 0.000000000000e+00
  -1.134540686996e-01 1.431369421958e-01 0.000000000000e+00
  -1.270235533879e-01 1.925551864150e-01 0.000000000000e+00
  -1.397253663694e-01 2.470207606327e-01 0.000000000000e+00
  -1.495434201428e-01 3.020370562637e-01 0.000000000000e+00
  -1.547983444262e-01 3.510231016452e-01 0.000000000000e+00
  -1.545686382281e-01 3.864529128211e-01 0.000000000000e+00
  -1.488872540730e-01 4.016179928226e-01 0.000000000000e+00
  -1.386614119283e-01 3.924099575644e-01 0.000000000000e+00
  -1.253917626956e-01 3.584634671526e-01 0.000000000000e+00
  -1.108336092830e-01 3.033075410399e-01 0.000000000000e+00
  -9.671802689246e-02 2.336284056579e-01 0.000000000000e+00
  -8.456954690536e-02 1.580435084600e-01 0.000000000000e+00
  -7.558678217448e-02 8.576540881211e-02 0.000000000000e+00
  -7.053866738130e-02 2.529583219076e-02 0.000000000000e+00
  -6.966625010313e-02 -1.689784888160e-02 0.000000000000e+00
  -7.262547205453e-02 -3.769731305998e-02 0.000000000000e+00