# vtk DataFile Version 3.0
Karman Output
ASCII
DATASET RECTILINEAR_GRID
DIMENSIONS 101 101 1
X_COORDINATES 101 float
   0.000000000000e+00   9.900990099010e-03   1.980198019802e-02   2.970297029703e-02   3.960396039604e-02   4.950495049505e-02   5.940594059406e-02   6.930693069307e-02   7.920792079208e-02   8.910891089109e-02   9.900990099010e-02   1.089108910891e-01   1.188118811881e-01   1.287128712871e-01   1.386138613861e-01   1.485148514851e-01   1.584158415842e-01   1.683168316832e-01   1.782178217822e-01   1.881188118812e-01   1.980198019802e-01   2.079207920792e-01   2.178217821782e-01   2.277227722772e-01   2.376237623762e-01   2.475247524752e-01   2.574257425743e-01   2.673267326733e-01   2.772277227723e-01   2.871287128713e-01   2.970297029703e-01   3.069306930693e-01   3.168316831683e-01   3.267326732673e-01   3.366336633663e-01   3.465346534653e-01   3.564356435644e-01   3.663366336634e-01   3.762376237624e-01   3.861386138614e-01   3.960396039604e-01   4.059405940594e-01   4.158415841584e-01   4.257425742574e-01   4.356435643564e-01   4.455445544554e-01   4.554455445545e-01   4.653465346535e-01   4.752475247525e-01   4.851485148515e-01   4.950495049505e-01   5.049504950495e-01   5.148514851485e-01   5.247524752475e-01   5.346534653465e-01   5.445544554455e-01   5.544554455446e-01   5.643564356436e-01   5.742574257426e-01   5.841584158416e-01   5.940594059406e-01   6.039603960396e-01   6.138613861386e-01   6.237623762376e-01   6.336633663366e-01   6.435643564356e-01   6.534653465347e-01   6.633663366337e-01   6.732673267327e-01   6.831683168317e-01   6.930693069307e-01   7.029702970297e-01   7.128712871287e-01   7.227722772277e-01   7.326732673267e-01   7.425742574257e-01   7.524752475248e-01   7.623762376238e-01   7.722772277228e-01   7.821782178218e-01   7.920792079208e-01   8.019801980198e-01   8.118811881188e-01   8.217821782178e-01   8.316831683168e-01   8.415841584158e-01   8.514851485149e-01   8.613861386139e-01   8.712871287129e-01   8.811881188119e-01   8.910891089109e-01   9.009900990099e-01   9.108910891089e-01   9.207920792079e-01   9.306930693069e-01   9.405940594059e-01   9.504950495050e-01   9.603960396040e-01   9.702970297030e-01   9.801980198020e-01   9.900990099010e-01
Y_COORDINATES 101 float
   0.000000000000e+00   9.900990099010e-03   1.980198019802e-02   2.970297029703e-02   3.960396039604e-02   4.950495049505e-02   5.940594059406e-02   6.930693069307e-02   7.920792079208e-02   8.910891089109e-02   9.900990099010e-02   1.089108910891e-01   1.188118811881e-01   1.287128712871e-01   1.386138613861e-01   1.485148514851e-01   1.584158415842e-01   1.683168316832e-01   1.782178217822e-01   1.881188118812e-01   1.980198019802e-01   2.079207920792e-01   2.178217821782e-01   2.277227722772e-01   2.376237623762e-01   2.475247524752e-01   2.574257425743e-01   2.673267326733e-01   2.772277227723e-01   2.871287128713e-01   2.970297029703e-01   3.069306930693e-01   3.168316831683e-01   3.267326732673e-01   3.366336633663e-01   3.465346534653e-01   3.564356435644e-01   3.663366336634e-01   3.762376237624e-01   3.861386138614e-01   3.960396039604e-01   4.059405940594e-01   4.158415841584e-01   4.257425742574e-01   4.356435643564e-01   4.455445544554e-01   4.554455445545e-01   4.653465346535e-01   4.752475247525e-01   4.851485148515e-01   4.950495049505e-01   5.049504950495e-01   5.148514851485e-01   5.247524752475e-01   5.346534653465e-01   5.445544554455e-01   5.544554455446e-01   5.643564356436e-01   5.742574257426e-01   5.841584158416e-01   5.940594059406e-01   6.039603960396e-01   6.138613861386e-01   6.237623762376e-01   6.336633663366e-01   6.435643564356e-01   6.534653465347e-01   6.633663366337e-01   6.732673267327e-01   6.831683168317e-01   6.930693069307e-01   7.029702970297e-01   7.128712871287e-01   7.227722772277e-01   7.326732673267e-01   7.425742574257e-01   7.524752475248e-01   7.623762376238e-01   7.722772277228e-01   7.821782178218e-01   7.920792079208e-01   8.019801980198e-01   8.118811881188e-01   8.217821782178e-01   8.316831683168e-01   8.415841584158e-01   8.514851485149e-01   8.613861386139e-01   8.712871287129e-01   8.811881188119e-01   8.910891089109e-01   9.009900990099e-01   9.108910891089e-01   9.207920792079e-01   9.306930693069e-01   9.405940594059e-01   9.504950495050e-01   9.603960396040e-01   9.702970297030e-01   9.801980198020e-01   9.900990099010e-01
Z_COORDINATES 1 float
  0.000000000000e+00
POINT_DATA 10201
VECTORS E_field float
  0.000000000000e+00 0.000000000000e+00 0.000000000000e+00
  0.000000000000e+00 0.000000000000e+00 0.000000000000e+00
  0.000000000000e+00 0.000000000000e+00 0.000000000000e+00
  0.000000000000e+00 0.000000000000e+00 0.000000000000e+00
  0.000000000000e+00 0.000000000000e+00 0.000000000000e+00
  0.000000000000e+00 0.000000000000e+00 0.000000000000e+00
  0.000000000000e+00 0.000000000000e+00 0.000000000000e+00
  0.000000000000e+00 0.000000000000e+00 0.000000000000e+00
  0.000000000000e+00 0.000000000000e+00 0.000000000000e+00
  0.000000000000e+00 0.000000000000e+00 0.000000000000e+00
  0.000000000000e+00 0.000000000000e+00 0.000000000000e+00
  0.000000000000e+00 0.000000000000e+00 0.000000000000e+00
  0.000000000000e+00 0.000000000000e+00 0.000000000000e+00
  0.000000000000e+00 0.000000000000e+00 0.000000000000e+00
  0.000000000000e+00 0.000000000000e+00 0.000000000000e+00
  0.000000000000e+00 0.000000000000e+00 0.000000000000e+00
  0.000000000000e+00 0.000000000000e+00 0.000000000000e+00
  0.000000000000e+00 0.000000000000e+00 0.000000000000e+00
  0.000000000000e+00 0.000000000000e+00 0.000000000000e+00
  0.000000000000e+00 0.000000000000e+00 0.000000000000e+00
  0.000000000000e+00 0.000000000000e+00 0.000000000000e+00
  0.000000000000e+00 0.000000000000e+00 0.000000000000e+00
  0.000000000000e+00 0.000000000000e+00 0.000000000000e+00
  0.000000000000e+00 0.000000000000e+00 0.000000000000e+00
  0.000000000000e+00 0.000000000000e+00 0.000000000000e+00
  0.000000000000e+00 0.000000000000e+00 0.000000000000e+00
  0.000000000000e+00 0.000000000000e+00 0.000000000000e+00
  0.000000000000e+00 0.000000000000e+00 0.000000000000e+00
  0.000000000000e+00 0.000000000000e+00 0.000000000000e+00
  0.000000000000e+00 0.000000000000e+00 0.000000000000e+00
  0.000000000000e+00 0.000000000000e+00 0.000000000000e+00
  0.000000000000e+00 0.000000000000e+00 0.000000000000e+00
  0.000000000000e+00 0.000000000000e+00 0.000000000000e+00
  0.000000000000e+00 0.000000000000e+00 0.000000000000e+00
  0.000000000000e+00 0.000000000000e+00 0.000000000000e+00
  0.000000000000e+00 0.000000000000e+00 0.000000000000e+00
  0.000000000000e+00 0.000000000000e+00 0.000000000000e+00
  0.000000000000e+00 0.000000000000e+00 0.000000000000e+00
  0.000000000000e+00 0.000000000000e+00 0.000000000000e+00
  0.000000000000e+00 0.000000000000e+00 0.000000000000e+00
  0.000000000000e+00 0.000000000000e+00 0.000000000000e+00
  0.000000000000e+00 0.000000000000e+00 0.000000000000e+00
  0.000000000000e+00 0.000000000000e+00 0.000000000000e+00
  0.000000000000e+00 0.000000000000e+00 0.000000000000e+00
  0.000000000000e+00 0.000000000000e+00 0.000000000000e+00
  0.000000000000e+00 0.000000000000e+00 0.000000000000e+00
  0.000000000000e+00 0.000000000000e+00 0.000000000000e+00
  0.000000000000e+00 0.000000000000e+00 0.000000000000e+00
  0.000000000000e+00 0.000000000000e+00 0.000000000000e+00
  0.000000000000e+00 0.000000000000e+00 0.000000000000e+00
  0.000000000000e+00 0.000000000000e+00 0.000000000000e+00
  0.000000000000e+00 0.000000000000e+00 0.000000000000e+00
  0.000000000000e+00 0.000000000000e+00 0.000000000000e+00
  0.000000000000e+00 0.000000000000e+00 0.000000000000e+00
  0.000000000000e+00 0.000000000000e+00 0.000000000000e+00
  0.000000000000e+00 0.000000000000e+00 0.000000000000e+00
  0.000000000000e+00 0.000000000000e+00 0.000000000000e+00
  0.000000000000e+00 0.000000000000e+00 0.000000000000e+00
  0.000000000000e+00 0.000000000000e+00 0.000000000000e+00
  0.000000000000e+00 0.000000000000e+00 0.000000000000e+00
  0.000000000000e+00 0.000000000000e+00 0.000000000000e+00
  0.000000000000e+00 0.000000000000e+00 0.000000000000e+00
  0.000000000000e+00 0.000000000000e+00 0.000000000000e+00
  0.000000000000e+00 0.000000000000e+00 0.000000000000e+00
  0.000000000000e+00 0.000000000000e+00 0.000000000000e+00
  0.000000000000e+00 0.000000000000e+00 0.000000000000e+00
  0.000000000000e+00 0.000000000000e+00 0.000000000000e+00
  0.000000000000e+00 0.000000000000e+00 0.000000000000e+00
  0.000000000000e+00 0.000000000000e+00 0.000000000000e+00
  0.000000000000e+00 0.000000000000e+00 0.000000000000e+00
  0.000000000000e+00 0.000000000000e+00 0.000000000000e+00
  0.000000000000e+00 0.000000000000e+00 0.000000000000e+00
  0.000000000000e+00 0.000000000000e+00 0.000000000000e+00
  0.000000000000e+00 0.000000000000e+00 0.000000000000e+00
  0.000000000000e+00 0.000000000000e+00 0.000000000000e+00
  0.000000000000e+00 0.000000000000e+00 0.000000000000e+00
  0.000000000000e+00 0.000000000000e+00 0.000000000000e+00
  0.000000000000e+00 0.000000000000e+00 0.000000000000e+00
  0.000000000000e+00 0.000000000000e+00 0.000000000000e+00
  0.000000000000e+00 0.000000000000e+00 0.000000000000e+00
  0.000000000000e+00 0.000000000000e+00 0.000000000000e+00
  0.000000000000e+00 0.000000000000e+00 0.000000000000e+00
  0.000000000000e+00 0.000000000000e+00 0.000000000000e+00
  0.000000000000e+00 0.000000000000e+00 0.000000000000e+00
  0.000000000000e+00 0.000000000000e+00 0.000000000000e+00
  0.000000000000e+00 0.000000000000e+00 0.000000000000e+00
  0.000000000000e+00 0.000000000000e+00 0.000000000000e+00
  0.000000000000e+00 0.000000000000e+00 0.000000000000e+00
  0.000000000000e+00 0.000000000000e+00 0.000000000000e+00
  0.000000000000e+00 0.000000000000e+00 0.000000000000e+00
  0.000000000000e+00 0.000000000000e+00 0.000000000000e+00
  0.000000000000e+00 0.000000000000e+00 0.000000000000e+00
  0.000000000000e+00 0.000000000000e+00 0.000000000000e+00
  0.000000000000e+00 0.000000000000e+00 0.000000000000e+00
  0.000000000000e+00 0.000000000000e+00 0.000000000000e+00
  0.000000000000e+00 0.000000000000e+00 0.000000000000e+00
  0.000000000000e+00 0.000000000000e+00 0.000000000000e+00
  0.000000000000e+00 0.000000000000e+00 0.000000000000e+00
  0.000000000000e+00 0.000000000000e+00 0.000000000000e+00
  0.000000000000e+00 0.000000000000e+00 0.000000000000e+00
  0.000000000000e+00 0.000000000000e+00 0.000000000000e+00
  0.000000000000e+00 0.000000000000e+00 0.000000000000e+00
  -4.613089710487e-02 4.613089710487e-02 0.000000000000e+00
  -4.599591450316e-02 1.323909394212e-01 0.000000000000e+00
  -4.574425017583e-02 2.021281244845e-01 0.000000000000e+00
  -4.540042426726e-02 2.487219151069e-01 0.000000000000e+00
  -4.498233931268e-02 2.705077803099e-01 0.000000000000e+00
  -4.449923989467e-02 2.702923475352e-01 0.000000000000e+00
  -4.396108175416e-02 2.537475131327e-01 0.000000000000e+00
  -4.338865445304e-02 2.273824344722e-01 0.000000000000e+00
  -4.281307095906e-02 1.967629049105e-01 0.000000000000e+00
  -4.226355029436e-02 1.654641608129e-01 0.000000000000e+00
  -4.175397610015e-02 1.349975271089e-01 0.000000000000e+00
  -4.128092608772e-02 1.056396388951e-01 0.000000000000e+00
  -4.083659468847e-02 7.775024062287e-02 0.000000000000e+00
  -4.042656207838e-02 5.294429395473e-02 0.000000000000e+00
  -4.007490591278e-02 3.455014041063e-02 0.000000000000e+00
  -3.980357287800e-02 2.713253753950e-02 0.000000000000e+00
  -3.958783083487e-02 3.527893921851e-02 0.000000000000e+00
  -3.930772265473e-02 6.209531006099e-02 0.000000000000e+00
  -3.872680810035e-02 1.078583945034e-01 0.000000000000e+00
  -3.752560409483e-02 1.691513971520e-01 0.000000000000e+00
  -3.539569254188e-02 2.387331904128e-01 0.000000000000e+00
  -3.216878653768e-02 3.063690331877e-01 0.000000000000e+00
  -2.792868659486e-02 3.607295158079e-01 0.000000000000e+00
  -2.304920641606e-02 3.921097108384e-01 0.000000000000e+00
  -1.812470655526e-02 3.952207581997e-01 0.000000000000e+00
  -1.380389265666e-02 3.709831220341e-01 0.000000000000e+00
  -1.058213060476e-02 3.264344692297e-01 0.000000000000e+00
  -8.630867453666e-03 2.726028177376e-01 0.000000000000e+00
  -7.732407403271e-03 2.211396583098e-01 0.000000000000e+00
  -7.347883266862e-03 1.811021757467e-01 0.000000000000e+00
  -6.793786264838e-03 1.571307832300e-01 0.000000000000e+00
  -5.461257008415e-03 1.494625792220e-01 0.000000000000e+00
  -2.999741815860e-03 1.552642990537e-01 0.000000000000e+00
  5.941376921722e-04 1.702574050298e-01 0.000000000000e+00
  5.001548695774e-03 1.898067349003e-01 0.000000000000e+00
  9.697074311562e-03 2.093126810488e-01 0.000000000000e+00
  1.410477032302e-02 2.243467332248e-01 0.000000000000e+00
  1.774079691655e-02 2.310740364239e-01 0.000000000000e+00
  2.030526323571e-02 2.270977715060e-01 0.000000000000e+00
  2.171088122463e-02 2.123117819187e-01 0.000000000000e+00
  2.205696385301e-02 1.891181545244e-01 0.000000000000e+00
  2.156791491714e-02 1.616494403710e-01 0.000000000000e+00
  2.051720760069e-02 1.342285474571e-01 0.000000000000e+00
  1.915600154930e-02 1.097791309957e-01 0.000000000000e+00
  1.766275127584e-02 8.894739851199e-02 0.000000000000e+00
  1.612518605617e-02 7.031130435997e-02 0.000000000000e+00
  1.455709423885e-02 5.149958008555e-02 0.000000000000e+00
  1.294106530785e-02 3.063097600676e-02 0.000000000000e+00
  1.127975279186e-02 7.385889859244e-03 0.000000000000e+00
  9.636653199029e-03 -1.676549528093e-02 0.000000000000e+00
  8.152798355966e-03 -3.925450173656e-02 0.000000000000e+00
  7.034144580983e-03 -5.768603325245e-02 0.000000000000e+00
  6.511790431628e-03 -7.109275885422e-02 0.000000000000e+00
  6.782577615542e-03 -8.057360244139e-02 0.000000000000e+00
  7.942642340320e-03 -8.897912737656e-02 0.000000000000e+00
  9.931479169675e-03 -9.972123993455e-02 0.000000000000e+00
  1.250617794133e-02 -1.151918362800e-01 0.000000000000e+00
  1.526058548598e-02 -1.355046908387e-01 0.000000000000e+00
  1.769140138712e-02 -1.581942734098e-01 0.000000000000e+00
  1.929738927999e-02 -1.790895362051e-01 0.000000000000e+00
  1.968652828199e-02 -1.939905021655e-01 0.000000000000e+00
  1.866384766826e-02 -2.003361719016e-01 0.000000000000e+00
  1.627884366730e-02 -1.980670819160e-01 0.000000000000e+00
  1.282104948238e-02 -1.893867985261e-01 0.000000000000e+00
  8.761925298815e-03 -1.777922397929e-01 0.000000000000e+00
  4.650709848651e-03 -1.671041707215e-01 0.000000000000e+00
  9.826984817155e-04 -1.610271905422e-01 0.000000000000e+00
  -1.930249872655e-03 -1.631700181087e-01 0.000000000000e+00
  -4.049985696924e-03 -1.769448493824e-01 0.000000000000e+00
  -5.629361553420e-03 -2.047740875527e-01 0.000000000000e+00
  -7.140065141935e-03 -2.466071128073e-01 0.000000000000e+00
  -9.123281744526e-03 -2.984825393318e-01 0.000000000000e+00
  -1.200618153857e-02 -3.521931232216e-01 0.000000000000e+00
  -1.594632482126e-02 -3.967148904217e-01 0.000000000000e+00
  -2.076227819967e-02 -4.211478834411e-01 0.000000000000e+00
  -2.597979630094e-02 -4.180548159674e-01 0.000000000000e+00
  -3.097882529183e-02 -3.858165157156e-01 0.000000000000e+00
  -3.518621839559e-02 -3.290919236897e-01 0.000000000000e+00
  -3.824130652015e-02 -2.573538946015e-01 0.000000000000e+00
  -4.007523404809e-02 -1.822404539985e-01 0.000000000000e+00
  -4.088380364197e-02 -1.147428121140e-01 0.000000000000e+00
  -4.101852176911e-02 -6.303857864951e-02 0.000000000000e+00
  -4.085015332331e-02 -3.134803831806e-02 0.000000000000e+00
  -4.066101499348e-02 -1.983886773405e-02 0.000000000000e+00
  -4.059922621293e-02 -2.542741361835e-02 0.000000000000e+00
  -4.069498594067e-02 -4.322200831445e-02 0.000000000000e+00
  -4.091292748584e-02 -6.821169694913e-02 0.000000000000e+00
  -4.120623476136e-02 -9.666054959414e-02 0.000000000000e+00
  -4.154755753432e-02 -1.266904952777e-01 0.000000000000e+00
  -4.193071980857e-02 -1.578330725928e-01 0.000000000000e+00
  -4.235460989738e-02 -1.897993438963e-01 0.000000000000e+00
  -4.280760435986e-02 -2.210899208695e-01 0.000000000000e+00
  -4.326501011525e-02 -2.481257782858e-01 0.000000000000e+00
  -4.369883566333e-02 -2.653282317347e-01 0.000000000000e+00
  -4.408898430656e-02 -2.661980705034e-01 0.000000000000e+00
  -4.442539260332e-02 -2.451155585726e-01 0.000000000000e+00
  -4.470045915951e-02 -1.993501093812e-01 0.000000000000e+00
  -4.490083664132e-02 -1.306172626073e-01 0.000000000000e+00
  -4.500802563603e-02 -4.551864550250e-02 0.000000000000e+00
  0.000000000000e+00 0.000000000000e+00 0.000000000000e+00
  0.000000000000e+00 0.000000000000e+00 0.000000000000e+00
  -1.323909394212e-01 4.599591450316e-02 0.000000000000e+00
  -1.320075379859e-01 1.320075379859e-01 0.000000000000e+00
  -1.312932755652e-01 2.015455991718e-01 0.000000000000e+00
  -1.303184984798e-01 2.479858374256e-01 0.000000000000e+00
  -1.291344641778e-01 2.696417387347e-01 0.000000000000e+00
  -1.277675246850e-01 2.693083501995e-01 0.000000000000e+00
  -1.262461748434e-01 2.526720024863e-01 0.000000000000e+00
  -1.246303274111e-01 2.262696703852e-01 0.000000000000e+00
  -1.230100729353e-01 1.956798310277e-01 0.000000000000e+00
  -1.214708769938e-01 1.644585180896e-01 0.000000000000e+00
  -1.200553858514e-01 1.340781044956e-01 0.000000000000e+00
  -1.187581558813e-01 1.047887815259e-01 0.000000000000e+00
  -1.175625860534e-01 7.696119676494e-02 0.000000000000e+00
  -1.164904528033e-01 5.225117195249e-02 0.000000000000e+00
  -1.156135105257e-01 3.401466396967e-02 0.000000000000e+00
  -1.149904545806e-01 2.677362500049e-02 0.000000000000e+00
  -1.145364131492e-01 3.496806828307e-02 0.000000000000e+00
  -1.138841556951e-01 6.147381536216e-02 0.000000000000e+00
  -1.123275172933e-01 1.063423362460e-01 0.000000000000e+00
  -1.089244154015e-01 1.660631495120e-01 0.000000000000e+00
  -1.027738862979e-01 2.335409973963e-01 0.000000000000e+00
  -9.339071430273e-02 2.989511482050e-01 0.000000000000e+00
  -8.102698265290e-02 3.515435691980e-01 0.000000000000e+00
  -6.677775429033e-02 3.821669489069e-01 0.000000000000e+00
  -5.237691147728e-02 3.858381774574e-01 0.000000000000e+00
  -3.971569259777e-02 3.633836699983e-01 0.000000000000e+00
  -3.024378394260e-02 3.213402505584e-01 0.000000000000e+00
  -2.447873944425e-02 2.699807287595e-01 0.000000000000e+00
  -2.181879890140e-02 2.202033466947e-01 0.000000000000e+00
  -2.073754467396e-02 1.805727089980e-01 0.000000000000e+00
  -1.928825112355e-02 1.556568594264e-01 0.000000000000e+00
  -1.572856814255e-02 1.460442907884e-01 0.000000000000e+00
  -9.041673314174e-03 1.495341774667e-01 0.000000000000e+00
  8.130785614848e-04 1.625388952339e-01 0.000000000000e+00
  1.297129858197e-02 1.809596136738e-01 0.000000000000e+00
  2.598794455543e-02 2.004476306891e-01 0.000000000000e+00
  3.827172266115e-02 2.165203094725e-01 0.000000000000e+00
  4.847917085475e-02 2.250569853974e-01 0.000000000000e+00
  5.576701920819e-02 2.232625078729e-01 0.000000000000e+00
  5.987180294427e-02 2.106366438462e-01 0.000000000000e+00
  6.104216374101e-02 1.892768491994e-01 0.000000000000e+00
  5.987564571302e-02 1.631463126972e-01 0.000000000000e+00
  5.711474058861e-02 1.365432876196e-01 0.000000000000e+00
  5.345203815409e-02 1.124882993773e-01 0.000000000000e+00
  4.938884265648e-02 9.179467596839e-02 0.000000000000e+00
  4.518032936673e-02 7.321010548537e-02 0.000000000000e+00
  4.087659920801e-02 5.447260100911e-02 0.000000000000e+00
  3.643711807210e-02 3.371346521762e-02 0.000000000000e+00
  3.187090069575e-02 1.053093059649e-02 0.000000000000e+00
  2.734952619902e-02 -1.374606189032e-02 0.000000000000e+00
  2.325479661997e-02 -3.669535068839e-02 0.000000000000e+00
  2.014609964892e-02 -5.601783356142e-02 0.000000000000e+00
  1.865281165032e-02 -7.074531642686e-02 0.000000000000e+00
  1.931207920484e-02 -8.185109965623e-02 0.000000000000e+00
  2.238655589134e-02 -9.193617163635e-02 0.000000000000e+00
  2.771104884001e-02 -1.040775255242e-01 0.000000000000e+00
  3.462288445210e-02 -1.203220851474e-01 0.000000000000e+00
  4.201634424191e-02 -1.405223093755e-01 0.000000000000e+00
  4.852508270200e-02 -1.621162092964e-01 0.000000000000e+00
  5.279252533817e-02 -1.810410308999e-01 0.000000000000e+00
  5.376058311799e-02 -1.933962042943e-01 0.000000000000e+00
  5.090406596704e-02 -1.970512720398e-01 0.000000000000e+00
  4.435688292063e-02 -1.924197947531e-01 0.000000000000e+00
  3.490162153005e-02 -1.821210301290e-01 0.000000000000e+00
  2.381674853731e-02 -1.699140110239e-01 0.000000000000e+00
  1.259783270287e-02 -1.596522682122e-01 0.000000000000e+00
  2.597894021699e-03 -1.548111430071e-01 0.000000000000e+00
  -5.333867741191e-03 -1.585413555286e-01 0.000000000000e+00
  -1.111057775225e-02 -1.736770661283e-01 0.000000000000e+00
  -1.546361352681e-02 -2.021094591764e-01 0.000000000000e+00
  -1.974338920670e-02 -2.434812619155e-01 0.000000000000e+00
  -2.549583000133e-02 -2.938727328265e-01 0.000000000000e+00
  -3.393639875706e-02 -3.454794611772e-01 0.000000000000e+00
  -4.550125746645e-02 -3.879235504740e-01 0.000000000000e+00
  -5.964560185604e-02 -4.109789256208e-01 0.000000000000e+00
  -7.497572153146e-02 -4.076761360110e-01 0.000000000000e+00
  -8.967339155165e-02 -3.764984966609e-01 0.000000000000e+00
  -1.020540450310e-01 -3.218218961612e-01 0.000000000000e+00
  -1.110484800615e-01 -2.525743989749e-01 0.000000000000e+00
  -1.164369856317e-01 -1.797975165270e-01 0.000000000000e+00
  -1.187759790784e-01 -1.140381865451e-01 0.000000000000e+00
  -1.190862969546e-01 -6.329816821509e-02 0.000000000000e+00
  -1.184580759305e-01 -3.188503822239e-02 0.000000000000e+00
  -1.177343184064e-01 -2.021476368366e-02 0.000000000000e+00
  -1.173709816109e-01 -2.547664324476e-02 0.000000000000e+00
  -1.174770292830e-01 -4.297097128822e-02 0.000000000000e+00
  -1.179622276269e-01 -6.775959408632e-02 0.000000000000e+00
  -1.186942377159e-01 -9.608733509240e-02 0.000000000000e+00
  -1.195914004397e-01 -1.260252242826e-01 0.000000000000e+00
  -1.206314535224e-01 -1.570751282308e-01 0.000000000000e+00
  -1.218073194792e-01 -1.889575322126e-01 0.000000000000e+00
  -1.230826285780e-01 -2.202034289919e-01 0.000000000000e+00
  -1.243837677502e-01 -2.472537252359e-01 0.000000000000e+00
  -1.256274212885e-01 -2.645228056983e-01 0.000000000000e+00
  -1.267526529339e-01 -2.654881162512e-01 0.000000000000e+00
  -1.277273074112e-01 -2.445144500508e-01 0.000000000000e+00
  -1.285265861646e-01 -1.988768725935e-01 0.000000000000e+00
  -1.291097192835e-01 -1.303069887942e-01 0.000000000000e+00
  -1.294218427381e-01 -4.540960686625e-02 0.000000000000e+00
  0.000000000000e+00 0.000000000000e+00 0.000000000000e+00
  0.000000000000e+00 0.000000000000e+00 0.000000000000e+00
  -2.021281244845e-01 4.574425017583e-02 0.000000000000e+00
  -2.015455991718e-01 1.312932755652e-01 0.000000000000e+00
  -2.004621001280e-01 2.004621001280e-01 0.000000000000e+00
  -1.989874588910e-01 2.466199181468e-01 0.000000000000e+00
  -1.972030534982e-01 2.680392183187e-01 0.000000000000e+00
  -1.951525079503e-01 2.674933855749e-01 0.000000000000e+00
  -1.928827073961e-01 2.506958167152e-01 0.000000000000e+00
  -1.904884503215e-01 2.242357516493e-01 0.000000000000e+00
  -1.881108527667e-01 1.937158977329e-01 0.000000000000e+00
  -1.858850600894e-01 1.626574627655e-01 0.000000000000e+00
  -1.838834221085e-01 1.324620306962e-01 0.000000000000e+00
  -1.821089137271e-01 1.033331169738e-01 0.000000000000e+00
  -1.805511286751e-01 7.566350643722e-02 0.000000000000e+00
  -1.792573937565e-01 5.118299411157e-02 0.000000000000e+00
  -1.783412000981e-01 3.328970587457e-02 0.000000000000e+00
  -1.778747406872e-01 2.640906773954e-02 0.000000000000e+00
  -1.776824400187e-01 3.468628344415e-02 0.000000000000e+00
  -1.771317356258e-01 6.055263835409e-02 0.000000000000e+00
  -1.750610338094e-01 1.036361730359e-01 0.000000000000e+00
  -1.699586786778e-01 1.602638556988e-01 0.000000000000e+00
  -1.604065816129e-01 2.236376650410e-01 0.000000000000e+00
  -1.456639298106e-01 2.847286567628e-01 0.000000000000e+00
  -1.261575477203e-01 3.338959469000e-01 0.000000000000e+00
  -1.036325278236e-01 3.630403229457e-01 0.000000000000e+00
  -8.082535730276e-02 3.677567900847e-01 0.000000000000e+00
  -6.071520274297e-02 3.486936839317e-01 0.000000000000e+00
  -4.560111885067e-02 3.114442440776e-01 0.000000000000e+00
  -3.635023841705e-02 2.648608103084e-01 0.000000000000e+00
  -3.211206345863e-02 2.184251496447e-01 0.000000000000e+00
  -3.061412804672e-02 1.797717164090e-01 0.000000000000e+00
  -2.892472679226e-02 1.533191572111e-01 0.000000000000e+00
  -2.439238167585e-02 1.402899649076e-01 0.000000000000e+00
  -1.542399959961e-02 1.396332264458e-01 0.000000000000e+00
  -1.855341263966e-03 1.490164360492e-01 0.000000000000e+00
  1.515452767339e-02 1.653139839112e-01 0.000000000000e+00
  3.359439475399e-02 1.846367474165e-01 0.000000000000e+00
  5.122240200700e-02 2.024194074187e-01 0.000000000000e+00
  6.612143866944e-02 2.140514026479e-01 0.000000000000e+00
  7.705119613386e-02 2.160504848862e-01 0.000000000000e+00
  8.356305463416e-02 2.072320247172e-01 0.000000000000e+00
  8.591910251113e-02 1.891550598247e-01 0.000000000000e+00
  8.488459140108e-02 1.654691314379e-01 0.000000000000e+00
  8.146061659659e-02 1.404053490985e-01 0.000000000000e+00
  7.661758199871e-02 1.171319752823e-01 0.000000000000e+00
  7.108923606336e-02 9.674254189835e-02 0.000000000000e+00
  6.527890652259e-02 7.828108281866e-02 0.000000000000e+00
  5.929950575341e-02 5.968475503838e-02 0.000000000000e+00
  5.312200905266e-02 3.911828942658e-02 0.000000000000e+00
  4.676741106190e-02 1.604692208625e-02 0.000000000000e+00
  4.046658504817e-02 -8.439852641275e-03 0.000000000000e+00
  3.473226422632e-02 -3.217250943574e-02 0.000000000000e+00
  3.032020418541e-02 -5.301991783990e-02 0.000000000000e+00
  2.808515704559e-02 -7.001489718219e-02 0.000000000000e+00
  2.875868508112e-02 -8.391431477904e-02 0.000000000000e+00
  3.269718327469e-02 -9.688593176778e-02 0.000000000000e+00
  3.967040222319e-02 -1.114254777142e-01 0.000000000000e+00
  4.876900517795e-02 -1.289845719620e-01 0.000000000000e+00
  5.848649649337e-02 -1.489707740854e-01 0.000000000000e+00
  6.697581711370e-02 -1.686658040435e-01 0.000000000000e+00
  7.241861186130e-02 -1.842016738557e-01 0.000000000000e+00
  7.340873982460e-02 -1.921937473379e-01 0.000000000000e+00
  6.925605398079e-02 -1.912445261969e-01 0.000000000000e+00
  6.014808284128e-02 -1.825713865520e-01 0.000000000000e+00
  4.713953526589e-02 -1.695056294623e-01 0.000000000000e+00
  3.195968878771e-02 -1.562646922843e-01 0.000000000000e+00
  1.664658436026e-02 -1.467695667305e-01 0.000000000000e+00
  3.053560511818e-03 -1.441008819836e-01 0.000000000000e+00
  -7.669745472880e-03 -1.505965488185e-01 0.000000000000e+00
  -1.546832929387e-02 -1.680465790140e-01 0.000000000000e+00
  -2.148420789643e-02 -1.973710319176e-01 0.000000000000e+00
  -2.777479279194e-02 -2.376493286009e-01 0.000000000000e+00
  -3.668129366224e-02 -2.850457244771e-01 0.000000000000e+00
  -5.002846964224e-02 -3.325187247913e-01 0.000000000000e+00
  -6.843357627884e-02 -3.709143215141e-01 0.000000000000e+00
  -9.099175519575e-02 -3.912856312743e-01 0.000000000000e+00
  -1.154765028127e-01 -3.875545630652e-01 0.000000000000e+00
  -1.389947018675e-01 -3.584042005317e-01 0.000000000000e+00
  -1.588532961457e-01 -3.076769445329e-01 0.000000000000e+00
  -1.733137044722e-01 -2.432645072463e-01 0.000000000000e+00
  -1.819686232627e-01 -1.750639838950e-01 0.000000000000e+00
  -1.856445969735e-01 -1.127567520196e-01 0.000000000000e+00
  -1.859304808810e-01 -6.398340095684e-02 0.000000000000e+00
  -1.845649901491e-01 -3.319351723664e-02 0.000000000000e+00
  -1.829323819175e-01 -2.126265042507e-02 0.000000000000e+00
  -1.818228593449e-01 -2.590161587149e-02 0.000000000000e+00
  -1.814728154096e-01 -4.278999492468e-02 0.000000000000e+00
  -1.817818858455e-01 -6.714630167005e-02 0.000000000000e+00
  -1.825571774597e-01 -9.519332580545e-02 0.000000000000e+00
  -1.836667474447e-01 -1.249125008608e-01 0.000000000000e+00
  -1.850645529949e-01 -1.557499930197e-01 0.000000000000e+00
  -1.867294181553e-01 -1.874419363067e-01 0.000000000000e+00
  -1.885979892112e-01 -2.185751447430e-01 0.000000000000e+00
  -1.905505488284e-01 -2.456283106954e-01 0.000000000000e+00
  -1.924511018460e-01 -2.630040136828e-01 0.000000000000e+00
  -1.941958994717e-01 -2.641368789956e-01 0.000000000000e+00
  -1.957240764296e-01 -2.433628558712e-01 0.000000000000e+00
  -1.969863267529e-01 -1.979669376963e-01 0.000000000000e+00
  -1.979106008654e-01 -1.297095164600e-01 0.000000000000e+00
  -1.984060000728e-01 -4.519955653849e-02 0.000000000000e+00
  0.000000000000e+00 0.000000000000e+00 0.000000000000e+00
  0.000000000000e+00 0.000000000000e+00 0.000000000000e+00
  -2.487219151069e-01 4.540042426726e-02 0.000000000000e+00
  -2.479858374256e-01 1.303184984798e-01 0.000000000000e+00
  -2.466199181468e-01 1.989874588910e-01 0.000000000000e+00
  -2.447705479264e-01 2.447705479264e-01 0.000000000000e+00
  -2.425530906813e-01 2.658867259012e-01 0.000000000000e+00
  -2.400381129417e-01 2.650803547050e-01 0.000000000000e+00
  -2.372990794764e-01 2.481000135655e-01 0.000000000000e+00
  -2.344651316060e-01 2.216033498540e-01 0.000000000000e+00
  -2.317187031226e-01 1.912242734901e-01 0.000000000000e+00
  -2.292331676134e-01 1.604377588218e-01 0.000000000000e+00
  -2.271068491447e-01 1.305537781904e-01 0.000000000000e+00
  -2.253585458720e-01 1.017185578255e-01 0.000000000000e+00
  -2.239957517202e-01 7.435748638170e-02 0.000000000000e+00
  -2.230933599903e-01 5.029288751861e-02 0.000000000000e+00
  -2.227869253711e-01 3.295718418987e-02 0.000000000000e+00
  -2.231211035287e-01 2.660930817101e-02 0.000000000000e+00
  -2.237850746895e-01 3.495771350488e-02 0.000000000000e+00
  -2.238633789018e-01 5.980880811278e-02 0.000000000000e+00
  -2.217761751391e-01 1.002220976982e-01 0.000000000000e+00
  -2.155399099684e-01 1.523393107342e-01 0.000000000000e+00
  -2.033493739767e-01 2.098195769488e-01 0.000000000000e+00