# vtk DataFile Version 3.0
Karman Output
ASCII
DATASET RECTILINEAR_GRID
DIMENSIONS 101 101 1
X_COORDINATES 101 float
   0.000000000000e+00   9.900990099010e-03   1.980198019802e-02   2.970297029703e-02   3.960396039604e-02   4.950495049505e-02   5.940594059406e-02   6.930693069307e-02   7.920792079208e-02   8.910891089109e-02   9.900990099010e-02   1.089108910891e-01   1.188118811881e-01   1.287128712871e-01   1.386138613861e-01   1.485148514851e-01   1.584158415842e-01   1.683168316832e-01   1.782178217822e-01   1.881188118812e-01   1.980198019802e-01   2.079207920792e-01   2.178217821782e-01   2.277227722772e-01   2.376237623762e-01   2.475247524752e-01   2.574257425743e-01   2.673267326733e-01   2.772277227723e-01   2.871287128713e-01   2.970297029703e-01   3.069306930693e-01   3.168316831683e-01   3.267326732673e-01   3.366336633663e-01   3.465346534653e-01   3.564356435644e-01   3.663366336634e-01   3.762376237624e-01   3.861386138614e-01   3.960396039604e-01   4.059405940594e-01   4.158415841584e-01   4.257425742574e-01   4.356435643564e-01   4.455445544554e-01   4.554455445545e-01   4.653465346535e-01   4.752475247525e-01   4.851485148515e-01   4.950495049505e-01   5.049504950495e-01   5.148514851485e-01   5.247524752475e-01   5.346534653465e-01   5.445544554455e-01   5.544554455446e-01   5.643564356436e-01   5.742574257426e-01   5.841584158416e-01   5.940594059406e-01   6.039603960396e-01   6.138613861386e-01   6.237623762376e-01   6.336633663366e-01   6.435643564356e-01   6.534653465347e-01   6.633663366337e-01   6.732673267327e-01   6.831683168317e-01   6.930693069307e-01   7.029702970297e-01   7.128712871287e-01   7.227722772277e-01   7.326732673267e-01   7.425742574257e-01   7.524752475248e-01   7.623762376238e-01   7.722772277228e-01   7.821782178218e-01   7.920792079208e-01   8.019801980198e-01   8.118811881188e-01   8.217821782178e-01   8.316831683168e-01   8.415841584158e-01   8.514851485149e-01   8.613861386139e-01   8.712871287129e-01   8.811881188119e-01   8.910891089109e-01   9.009900990099e-01   9.108910891089e-01   9.207920792079e-01   9.306930693069e-01   9.405940594059e-01   9.504950495050e-01   9.603960396040e-01   9.702970297030e-01   9.801980198020e-01   9.900990099010e-01
Y_COORDINATES 101 float
   0.000000000000e+00   9.900990099010e-03   1.980198019802e-02   2.970297029703e-02   3.960396039604e-02   4.950495049505e-02   5.940594059406e-02   6.930693069307e-02   7.920792079208e-02   8.910891089109e-02   9.900990099010e-02   1.089108910891e-01   1.188118811881e-01   1.287128712871e-01   1.386138613861e-01   1.485148514851e-01   1.584158415842e-01   1.683168316832e-01   1.782178217822e-01   1.881188118812e-01   1.980198019802e-01   2.079207920792e-01   2.178217821782e-01   2.277227722772e-01   2.376237623762e-01   2.475247524752e-01   2.574257425743e-01   2.673267326733e-01   2.772277227723e-01   2.871287128713e-01   2.970297029703e-01   3.069306930693e-01   3.168316831683e-01   3.267326732673e-01   3.366336633663e-01   3.465346534653e-01   3.564356435644e-01   3.663366336634e-01   3.762376237624e-01   3.861386138614e-01   3.960396039604e-01   4.059405940594e-01   4.158415841584e-01   4.257425742574e-01   4.356435643564e-01   4.455445544554e-01   4.554455445545e-01   4.653465346535e-01   4.752475247525e-01   4.851485148515e-01   4.950495049505e-01   5.049504950495e-01   5.148514851485e-01   5.247524752475e-01   5.346534653465e-01   5.445544554455e-01   5.544554455446e-01   5.643564356436e-01   5.742574257426e-01   5.841584158416e-01   5.940594059406e-01   6.039603960396e-01   6.138613861386e-01   6.237623762376e-01   6.336633663366e-01   6.435643564356e-01   6.534653465347e-01   6.633663366337e-01   6.732673267327e-01   6.831683168317e-01   6.930693069307e-01   7.029702970297e-01   7.128712871287e-01   7.227722772277e-01   7.326732673267e-01   7.425742574257e-01   7.524752475248e-01   7.623762376238e-01   7.722772277228e-01   7.821782178218e-01   7.920792079208e-01   8.019801980198e-01   8.118811881188e-01   8.217821782178e-01   8.316831683168e-01   8.415841584158e-01   8.514851485149e-01   8.613861386139e-01   8.712871287129e-01   8.811881188119e-01   8.910891089109e-01   9.009900990099e-01   9.108910891089e-01   9.207920792079e-01   9.306930693069e-01   9.405940594059e-01   9.504950495050e-01   9.603960396040e-01   9.702970297030e-01   9.801980198020e-01   9.900990099010e-01
Z_COORDINATES 1 float
  0.000000000000e+00
POINT_DATA 10201
VECTORS E_field float
  0.000000000000e+00 0.000000000000e+00 0.000000000000e+00
  0.000000000000e+00 0.000000000000e+00 0.000000000000e+00
  0.000000000000e+00 0.000000000000e+00 0.000000000000e+00
  0.000000000000e+00 0.000000000000e+00 0.000000000000e+00
  0.000000000000e+00 0.000000000000e+00 0.000000000000e+00
  0.000000000000e+00 0.000000000000e+00 0.000000000000e+00
  0.000000000000e+00 0.000000000000e+00 0.000000000000e+00
  0.000000000000e+00 0.000000000000e+00 0.000000000000e+00
  0.000000000000e+00 0.000000000000e+00 0.000000000000e+00
  0.000000000000e+00 0.000000000000e+00 0.000000000000e+00
  0.000000000000e+00 0.000000000000e+00 0.000000000000e+00
  0.000000000000e+00 0.000000000000e+00 0.000000000000e+00
  0.000000000000e+00 0.000000000000e+00 0.000000000000e+00
  0.000000000000e+00 0.000000000000e+00 0.000000000000e+00
  0.000000000000e+00 0.000000000000e+00 0.000000000000e+00
  0.000000000000e+00 0.000000000000e+00 0.000000000000e+00
  0.000000000000e+00 0.000000000000e+00 0.000000000000e+00
  0.000000000000e+00 0.000000000000e+00 0.000000000000e+00
  0.000000000000e+00 0.000000000000e+00 0.000000000000e+00
  0.000000000000e+00 0.000000000000e+00 0.000000000000e+00
  0.000000000000e+00 0.000000000000e+00 0.000000000000e+00
  0.000000000000e+00 0.000000000000e+00 0.000000000000e+00
  0.000000000000e+00 0.000000000000e+00 0.000000000000e+00
  0.000000000000e+00 0.000000000000e+00 0.000000000000e+00
  0.000000000000e+00 0.000000000000e+00 0.000000000000e+00
  0.000000000000e+00 0.000000000000e+00 0.000000000000e+00
  0.000000000000e+00 0.000000000000e+00 0.000000000000e+00
  0.000000000000e+00 0.000000000000e+00 0.000000000000e+00
  0.000000000000e+00 0.000000000000e+00 0.000000000000e+00
  0.000000000000e+00 0.000000000000e+00 0.000000000000e+00
  0.000000000000e+00 0.000000000000e+00 0.000000000000e+00
  0.000000000000e+00 0.000000000000e+00 0.000000000000e+00
  0.000000000000e+00 0.000000000000e+00 0.000000000000e+00
  0.000000000000e+00 0.000000000000e+00 0.000000000000e+00
  0.000000000000e+00 0.000000000000e+00 0.000000000000e+00
  0.000000000000e+00 0.000000000000e+00 0.000000000000e+00
  0.000000000000e+00 0.000000000000e+00 0.000000000000e+00
  0.000000000000e+00 0.000000000000e+00 0.000000000000e+00
  0.000000000000e+00 0.000000000000e+00 0.000000000000e+00
  0.000000000000e+00 0.000000000000e+00 0.000000000000e+00
  0.000000000000e+00 0.000000000000e+00 0.000000000000e+00
  0.000000000000e+00 0.000000000000e+00 0.000000000000e+00
  0.000000000000e+00 0.000000000000e+00 0.000000000000e+00
  0.000000000000e+00 0.000000000000e+00 0.000000000000e+00
  0.000000000000e+00 0.000000000000e+00 0.000000000000e+00
  0.000000000000e+00 0.000000000000e+00 0.000000000000e+00
  0.000000000000e+00 0.000000000000e+00 0.000000000000e+00
  0.000000000000e+00 0.000000000000e+00 0.000000000000e+00
  0.000000000000e+00 0.000000000000e+00 0.000000000000e+00
  0.000000000000e+00 0.000000000000e+00 0.000000000000e+00
  0.000000000000e+00 0.000000000000e+00 0.000000000000e+00
  0.000000000000e+00 0.000000000000e+00 0.000000000000e+00
  0.000000000000e+00 0.000000000000e+00 0.000000000000e+00
  0.000000000000e+00 0.000000000000e+00 0.000000000000e+00
  0.000000000000e+00 0.000000000000e+00 0.000000000000e+00
  0.000000000000e+00 0.000000000000e+00 0.000000000000e+00
  0.000000000000e+00 0.000000000000e+00 0.000000000000e+00
  0.000000000000e+00 0.000000000000e+00 0.000000000000e+00
  0.000000000000e+00 0.000000000000e+00 0.000000000000e+00
  0.000000000000e+00 0.000000000000e+00 0.000000000000e+00
  0.000000000000e+00 0.000000000000e+00 0.000000000000e+00
  0.000000000000e+00 0.000000000000e+00 0.000000000000e+00
  0.000000000000e+00 0.000000000000e+00 0.000000000000e+00
  0.000000000000e+00 0.000000000000e+00 0.000000000000e+00
  0.000000000000e+00 0.000000000000e+00 0.000000000000e+00
  0.000000000000e+00 0.000000000000e+00 0.000000000000e+00
  0.000000000000e+00 0.000000000000e+00 0.000000000000e+00
  0.000000000000e+00 0.000000000000e+00 0.000000000000e+00
  0.000000000000e+00 0.000000000000e+00 0.000000000000e+00
  0.000000000000e+00 0.000000000000e+00 0.000000000000e+00
  0.000000000000e+00 0.000000000000e+00 0.000000000000e+00
  0.000000000000e+00 0.000000000000e+00 0.000000000000e+00
  0.000000000000e+00 0.000000000000e+00 0.000000000000e+00
  0.000000000000e+00 0.000000000000e+00 0.000000000000e+00
  0.000000000000e+00 0.000000000000e+00 0.000000000000e+00
  0.000000000000e+00 0.000000000000e+00 0.000000000000e+00
  0.000000000000e+00 0.000000000000e+00 0.000000000000e+00
  0.000000000000e+00 0.000000000000e+00 0.000000000000e+00
  0.000000000000e+00 0.000000000000e+00 0.000000000000e+00
  0.000000000000e+00 0.000000000000e+00 0.000000000000e+00
  0.000000000000e+00 0.000000000000e+00 0.000000000000e+00
  0.000000000000e+00 0.000000000000e+00 0.000000000000e+00
  0.000000000000e+00 0.000000000000e+00 0.000000000000e+00
  0.000000000000e+00 0.000000000000e+00 0.000000000000e+00
  0.000000000000e+00 0.000000000000e+00 0.000000000000e+00
  0.000000000000e+00 0.000000000000e+00 0.000000000000e+00
  0.000000000000e+00 0.000000000000e+00 0.000000000000e+00
  0.000000000000e+00 0.000000000000e+00 0.000000000000e+00
  0.000000000000e+00 0.000000000000e+00 0.000000000000e+00
  0.000000000000e+00 0.000000000000e+00 0.000000000000e+00
  0.000000000000e+00 0.000000000000e+00 0.000000000000e+00
  0.000000000000e+00 0.000000000000e+00 0.000000000000e+00
  0.000000000000e+00 0.000000000000e+00 0.000000000000e+00
  0.000000000000e+00 0.000000000000e+00 0.000000000000e+00
  0.000000000000e+00 0.000000000000e+00 0.000000000000e+00
  0.000000000000e+00 0.000000000000e+00 0.000000000000e+00
  0.000000000000e+00 0.000000000000e+00 0.000000000000e+00
  0.000000000000e+00 0.000000000000e+00 0.000000000000e+00
  0.000000000000e+00 0.000000000000e+00 0.000000000000e+00
  0.000000000000e+00 0.000000000000e+00 0.000000000000e+00
  0.000000000000e+00 0.000000000000e+00 0.000000000000e+00
  0.000000000000e+00 0.000000000000e+00 0.000000000000e+00
  -1.463073799294e-03 1.463073799294e-03 0.000000000000e+00
  -1.477495351858e-03 4.388663676057e-03 0.000000000000e+00
  -1.506502987125e-03 7.312587467554e-03 0.000000000000e+00
  -1.550430033034e-03 1.023375870597e-02 0.000000000000e+00
  -1.609787532234e-03 1.315112978383e-02 0.000000000000e+00
  -1.685278774704e-03 1.606371332642e-02 0.000000000000e+00
  -1.777821608962e-03 1.897061247611e-02 0.000000000000e+00
  -1.888583479630e-03 2.187107096962e-02 0.000000000000e+00
  -2.019040773576e-03 2.476457152958e-02 0.000000000000e+00
  -2.171089316965e-03 2.765105777781e-02 0.000000000000e+00
  -2.347265595056e-03 3.053147123832e-02 0.000000000000e+00
  -2.551201868125e-03 3.340906445216e-02 0.000000000000e+00
  -2.788546294772e-03 3.629252287112e-02 0.000000000000e+00
  -3.068728158671e-03 3.920301860014e-02 0.000000000000e+00
  -3.408081282804e-03 4.218913222045e-02 0.000000000000e+00
  -3.834791198496e-03 4.535604220565e-02 0.000000000000e+00
  -4.395598913000e-03 4.891760780977e-02 0.000000000000e+00
  -5.162810341517e-03 5.327954376292e-02 0.000000000000e+00
  -6.237803806358e-03 5.915452700954e-02 0.000000000000e+00
  -7.744557752551e-03 6.769088792017e-02 0.000000000000e+00
  -9.805634876039e-03 8.056406223206e-02 0.000000000000e+00
  -1.249637563373e-02 9.994272148322e-02 0.000000000000e+00
  -1.578276445197e-02 1.282227624729e-01 0.000000000000e+00
  -1.946287361534e-02 1.674555384494e-01 0.000000000000e+00
  -2.314382058723e-02 2.185052890120e-01 0.000000000000e+00
  -2.628525096602e-02 2.801384169019e-01 0.000000000000e+00
  -2.831941456134e-02 3.484009884441e-01 0.000000000000e+00
  -2.882130823399e-02 4.166726786948e-01 0.000000000000e+00
  -2.766788462193e-02 4.766178795101e-01 0.000000000000e+00
  -2.511550749225e-02 5.199129745885e-01 0.000000000000e+00
  -2.175155652982e-02 5.402594467171e-01 0.000000000000e+00
  -1.832964482661e-02 5.349951844540e-01 0.000000000000e+00
  -1.555050021009e-02 5.057209837211e-01 0.000000000000e+00
  -1.387332145788e-02 4.577338218578e-01 0.000000000000e+00
  -1.342401055206e-02 3.985195992742e-01 0.000000000000e+00
  -1.401969240373e-02 3.358805586546e-01 0.000000000000e+00
  -1.528020663645e-02 2.763213259520e-01 0.000000000000e+00
  -1.677036192500e-02 2.241119172197e-01 0.000000000000e+00
  -1.811937037980e-02 1.811248492075e-01 0.000000000000e+00
  -1.908725671236e-02 1.472684392730e-01 0.000000000000e+00
  -1.957591516784e-02 1.212077697206e-01 0.000000000000e+00
  -1.960167308884e-02 1.010841376153e-01 0.000000000000e+00
  -1.925205763031e-02 8.505324815278e-02 0.000000000000e+00
  -1.864490807689e-02 7.158720033718e-02 0.000000000000e+00
  -1.789917932193e-02 5.957453566533e-02 0.000000000000e+00
  -1.711893557493e-02 4.829097636688e-02 0.000000000000e+00
  -1.638752558944e-02 3.731176038518e-02 0.000000000000e+00
  -1.576766923458e-02 2.641487955268e-02 0.000000000000e+00
  -1.530388457855e-02 1.550000967678e-02 0.000000000000e+00
  -1.502501635160e-02 4.529367704441e-03 0.000000000000e+00
  -1.494577401651e-02 -6.514023548379e-03 0.000000000000e+00
  -1.506688793876e-02 -1.766000768137e-02 0.000000000000e+00
  -1.537384688741e-02 -2.898765810472e-02 0.000000000000e+00
  -1.583445236462e-02 -4.067441443535e-02 0.000000000000e+00
  -1.639589599261e-02 -5.306482025510e-02 0.000000000000e+00
  -1.698291522214e-02 -6.675781852518e-02 0.000000000000e+00
  -1.749973790955e-02 -8.269679725292e-02 0.000000000000e+00
  -1.783948924013e-02 -1.022248844721e-01 0.000000000000e+00
  -1.790451140426e-02 -1.270447874381e-01 0.000000000000e+00
  -1.763841737063e-02 -1.590108433910e-01 0.000000000000e+00
  -1.706499974854e-02 -1.996997354227e-01 0.000000000000e+00
  -1.632136713567e-02 -2.497712676656e-01 0.000000000000e+00
  -1.566637129876e-02 -3.082394295000e-01 0.000000000000e+00
  -1.544581151720e-02 -3.718930147621e-01 0.000000000000e+00
  -1.600739745191e-02 -4.351701694811e-01 0.000000000000e+00
  -1.758037932880e-02 -4.907335297416e-01 0.000000000000e+00
  -2.015887732173e-02 -5.307841630628e-01 0.000000000000e+00
  -2.344041138716e-02 -5.488466814724e-01 0.000000000000e+00
  -2.685995410720e-02 -5.414886191935e-01 0.000000000000e+00
  -2.972419339478e-02 -5.093594223546e-01 0.000000000000e+00
  -3.140522804470e-02 -4.571293644126e-01 0.000000000000e+00
  -3.152166626522e-02 -3.923152579857e-01 0.000000000000e+00
  -3.003713755963e-02 -3.234099500880e-01 0.000000000000e+00
  -2.724241391654e-02 -2.579742369001e-01 0.000000000000e+00
  -2.363841992130e-02 -2.012933799627e-01 0.000000000000e+00
  -1.977597476577e-02 -1.559006223558e-01 0.000000000000e+00
  -1.611592051641e-02 -1.219015007461e-01 0.000000000000e+00
  -1.295145811568e-02 -9.777531721053e-02 0.000000000000e+00
  -1.039989995364e-02 -8.126944114019e-02 0.000000000000e+00
  -8.443324889745e-03 -7.010587262659e-02 0.000000000000e+00
  -6.987437096912e-03 -6.238821858788e-02 0.000000000000e+00
  -5.913720897108e-03 -5.673732248660e-02 0.000000000000e+00
  -5.112990434524e-03 -5.225188657364e-02 0.000000000000e+00
  -4.500051385302e-03 -4.839344479859e-02 0.000000000000e+00
  -4.015291304405e-03 -4.486402639289e-02 0.000000000000e+00
  -3.619919155737e-03 -4.150893563506e-02 0.000000000000e+00
  -3.289692243063e-03 -3.825159344983e-02 0.000000000000e+00
  -3.009566530464e-03 -3.505494559010e-02 0.000000000000e+00
  -2.769962266706e-03 -3.190074798102e-02 0.000000000000e+00
  -2.564462950052e-03 -2.877931307197e-02 0.000000000000e+00
  -2.388509092331e-03 -2.568475665977e-02 0.000000000000e+00
  -2.238690208780e-03 -2.261289832836e-02 0.000000000000e+00
  -2.112364576645e-03 -1.956035702650e-02 0.000000000000e+00
  -2.007449076713e-03 -1.652415864235e-02 0.000000000000e+00
  -1.922296040789e-03 -1.350155731638e-02 0.000000000000e+00
  -1.855615984322e-03 -1.048994654635e-02 0.000000000000e+00
  -1.806426388487e-03 -7.486809685772e-03 0.000000000000e+00
  -1.774016860198e-03 -4.489689011511e-03 0.000000000000e+00
  -1.757925768267e-03 -1.496164207191e-03 0.000000000000e+00
  0.000000000000e+00 0.000000000000e+00 0.000000000000e+00
  0.000000000000e+00 0.000000000000e+00 0.000000000000e+00
  -4.388663676057e-03 1.477495351858e-03 0.000000000000e+00
  -4.432094049133e-03 4.432094049133e-03 0.000000000000e+00
  -4.519457493363e-03 7.385528173974e-03 0.000000000000e+00
  -4.651772994617e-03 1.033706054672e-02 0.000000000000e+00
  -4.830604384762e-03 1.328601683243e-02 0.000000000000e+00
  -5.058107407518e-03 1.623182054304e-02 0.000000000000e+00
  -5.337103275924e-03 1.917404396215e-02 0.000000000000e+00
  -5.671196859310e-03 2.211249493763e-02 0.000000000000e+00
  -6.064981034432e-03 2.504738903063e-02 0.000000000000e+00
  -6.524420437791e-03 2.797972822350e-02 0.000000000000e+00
  -7.057614015496e-03 3.091217064842e-02 0.000000000000e+00
  -7.676332528318e-03 3.385101982794e-02 0.000000000000e+00
  -8.399043184732e-03 3.681062257839e-02 0.000000000000e+00
  -9.256536764461e-03 3.982259433650e-02 0.000000000000e+00
  -1.030156498003e-02 4.295393782379e-02 0.000000000000e+00
  -1.162357790665e-02 4.633995944462e-02 0.000000000000e+00
  -1.336787272558e-02 5.023879310423e-02 0.000000000000e+00
  -1.575430745514e-02 5.511200462653e-02 0.000000000000e+00
  -1.908409595552e-02 6.172684811115e-02 0.000000000000e+00
  -2.371622090699e-02 7.125744571622e-02 0.000000000000e+00
  -2.999309848771e-02 8.533545914022e-02 0.000000000000e+00
  -3.810583377273e-02 1.059748006178e-01 0.000000000000e+00
  -4.791744051647e-02 1.352886789003e-01 0.000000000000e+00
  -5.880222050078e-02 1.749545111697e-01 0.000000000000e+00
  -6.959095928243e-02 2.254760020453e-01 0.000000000000e+00
  -7.870620186703e-02 2.854243768320e-01 0.000000000000e+00
  -8.451152252404e-02 3.509545127663e-01 0.000000000000e+00
  -8.579671230628e-02 4.159062378275e-01 0.000000000000e+00
  -8.222644289554e-02 4.726606273546e-01 0.000000000000e+00
  -7.455467062710e-02 5.136460773459e-01 0.000000000000e+00
  -6.448273926157e-02 5.330904616319e-01 0.000000000000e+00
  -5.418876420741e-02 5.284482827821e-01 0.000000000000e+00
  -4.570281463530e-02 5.010027912048e-01 0.000000000000e+00
  -4.036680871298e-02 4.554388297004e-01 0.000000000000e+00
  -3.856773366599e-02 3.985662054804e-01 0.000000000000e+00
  -3.980167002982e-02 3.376635706668e-01 0.000000000000e+00
  -4.298834101875e-02 2.789854991665e-01 0.000000000000e+00
  -4.687796390739e-02 2.268275221908e-01 0.000000000000e+00
  -5.039710790021e-02 1.832773966972e-01 0.000000000000e+00
  -5.284490667072e-02 1.485315769059e-01 0.000000000000e+00
  -5.393012602917e-02 1.215185099293e-01 0.000000000000e+00
  -5.369545582302e-02 1.005644851588e-01 0.000000000000e+00
  -5.239370075921e-02 8.392153013484e-02 0.000000000000e+00
  -5.036874212954e-02 7.008681023029e-02 0.000000000000e+00
  -4.796936708308e-02 5.792982203780e-02 0.000000000000e+00
  -4.550130692747e-02 4.668738616419e-02 0.000000000000e+00
  -4.320933934198e-02 3.589197308982e-02 0.000000000000e+00
  -4.127719183796e-02 2.528266305668e-02 0.000000000000e+00
  -3.983471830995e-02 1.472596804450e-02 0.000000000000e+00
  -3.896558732248e-02 4.155410160600e-03 0.000000000000e+00
  -3.871208603523e-02 -6.472809610222e-03 0.000000000000e+00
  -3.907576737445e-02 -1.721642636489e-02 0.000000000000e+00
  -4.001379830200e-02 -2.818624957457e-02 0.000000000000e+00
  -4.143175320800e-02 -3.959726263134e-02 0.000000000000e+00
  -4.317505024272e-02 -5.183723145975e-02 0.000000000000e+00
  -4.502375214971e-02 -6.554968625546e-02 0.000000000000e+00
  -4.669878906258e-02 -8.171306999567e-02 0.000000000000e+00
  -4.789030011325e-02 -1.016773494179e-01 0.000000000000e+00
  -4.831782853748e-02 -1.270997719662e-01 0.000000000000e+00
  -4.782409227282e-02 -1.597156892136e-01 0.000000000000e+00
  -4.648729676283e-02 -2.009051027739e-01 0.000000000000e+00
  -4.471473189430e-02 -2.510820978273e-01 0.000000000000e+00
  -4.326296705186e-02 -3.090353600403e-01 0.000000000000e+00
  -4.313241046735e-02 -3.714482006034e-01 0.000000000000e+00
  -4.531817788611e-02 -4.328676302964e-01 0.000000000000e+00
  -5.046241497871e-02 -4.863188499631e-01 0.000000000000e+00
  -5.852129141378e-02 -5.245614684171e-01 0.000000000000e+00
  -6.859353826648e-02 -5.417155952021e-01 0.000000000000e+00
  -7.902358884747e-02 -5.347701121639e-01 0.000000000000e+00
  -8.779017192089e-02 -5.044471070237e-01 0.000000000000e+00
  -9.306275195144e-02 -4.550880650633e-01 0.000000000000e+00
  -9.372102971122e-02 -3.935818413549e-01 0.000000000000e+00
  -8.963945666287e-02 -3.277094684728e-01 0.000000000000e+00
  -8.164086497892e-02 -2.644680338423e-01 0.000000000000e+00
  -7.116683437038e-02 -2.088776076243e-01 0.000000000000e+00
  -5.982112124780e-02 -1.635245529724e-01 0.000000000000e+00
  -4.896575777263e-02 -1.287929878541e-01 0.000000000000e+00
  -3.948993927988e-02 -1.035241109960e-01 0.000000000000e+00
  -3.177567050839e-02 -8.578647428821e-02 0.000000000000e+00
  -2.580564863103e-02 -7.351543641983e-02 0.000000000000e+00
  -2.132818226768e-02 -6.491200895082e-02 0.000000000000e+00
  -1.800791536683e-02 -5.860751522431e-02 0.000000000000e+00
  -1.552636264697e-02 -5.366397701837e-02 0.000000000000e+00
  -1.362900241041e-02 -4.949165363964e-02 0.000000000000e+00
  -1.213383932852e-02 -4.574574071463e-02 0.000000000000e+00
  -1.092005792150e-02 -4.223637486900e-02 0.000000000000e+00
  -9.910851040467e-03 -3.886358800960e-02 0.000000000000e+00
  -9.057977846997e-03 -3.557594993640e-02 0.000000000000e+00
  -8.330572031034e-03 -3.234675371444e-02 0.000000000000e+00
  -7.708018284560e-03 -2.916136040167e-02 0.000000000000e+00
  -7.175787221990e-03 -2.601089425035e-02 0.000000000000e+00
  -6.723118700647e-03 -2.288924814267e-02 0.000000000000e+00
  -6.341753191026e-03 -1.979169835395e-02 0.000000000000e+00
  -6.025223738482e-03 -1.671426226738e-02 0.000000000000e+00
  -5.768441591386e-03 -1.365338887438e-02 0.000000000000e+00
  -5.567438729840e-03 -1.060579790637e-02 0.000000000000e+00
  -5.419199400035e-03 -7.568387251390e-03 0.000000000000e+00
  -5.321546894614e-03 -4.538173479603e-03 0.000000000000e+00
  -5.273068329441e-03 -1.512249396202e-03 0.000000000000e+00
  0.000000000000e+00 0.000000000000e+00 0.000000000000e+00
  0.000000000000e+00 0.000000000000e+00 0.000000000000e+00
  -7.312587467554e-03 1.506502987124e-03 0.000000000000e+00
  -7.385528173975e-03 4.519457493363e-03 0.000000000000e+00
  -7.532278569598e-03 7.532278569598e-03 0.000000000000e+00
  -7.754602153554e-03 1.054494923630e-02 0.000000000000e+00
  -8.055211251416e-03 1.355756863085e-02 0.000000000000e+00
  -8.437858548330e-03 1.657041906430e-02 0.000000000000e+00
  -8.907484964463e-03 1.958406772544e-02 0.000000000000e+00
  -9.470466486924e-03 2.259954628019e-02 0.000000000000e+00
  -1.013505367353e-02 2.561870904980e-02 0.000000000000e+00
  -1.091220290129e-02 2.864499683545e-02 0.000000000000e+00
  -1.181719847450e-02 3.168509118739e-02 0.000000000000e+00
  -1.287280352216e-02 3.475242284947e-02 0.000000000000e+00
  -1.411516256886e-02 3.787428925998e-02 0.000000000000e+00
  -1.560418724993e-02 4.110544591571e-02 0.000000000000e+00
  -1.744028674386e-02 4.455221395408e-02 0.000000000000e+00
  -1.978823329165e-02 4.841164278874e-02 0.000000000000e+00
  -2.290549921221e-02 5.302867049961e-02 0.000000000000e+00
  -2.716560749845e-02 5.896867024696e-02 0.000000000000e+00
  -3.305750557957e-02 6.709186907223e-02 0.000000000000e+00
  -4.113362180834e-02 7.860066593539e-02 0.000000000000e+00
  -5.188011639848e-02 9.501561109192e-02 0.000000000000e+00
  -6.550255101513e-02 1.180298185677e-01 0.000000000000e+00
  -8.166298325838e-02 1.492056999373e-01 0.000000000000e+00
  -9.925978444140e-02 1.895190713000e-01 0.000000000000e+00
  -1.163799503427e-01 2.388203465980e-01 0.000000000000e+00
  -1.305374043091e-01 2.953527288304e-01 0.000000000000e+00
  -1.392186675174e-01 3.555127446333e-01 0.000000000000e+00
  -1.406115625239e-01 4.140260907492e-01 0.000000000000e+00
  -1.342628611090e-01 4.646218036075e-01 0.000000000000e+00
  -1.213807490597e-01 5.011310167756e-01 0.000000000000e+00
  -1.046098425149e-01 5.187626842924e-01 0.000000000000e+00
  -8.732166319156e-02 5.151939057455e-01 0.000000000000e+00
  -7.267510510535e-02 4.911246605860e-01 0.000000000000e+00
  -6.279690835860e-02 4.501027576558e-01 0.000000000000e+00
  -5.836356598436e-02 3.976698601143e-01 0.000000000000e+00
  -5.867800091623e-02 3.401082873476e-01 0.000000000000e+00
  -6.213100715571e-02 2.831804597466e-01 0.000000000000e+00
  -6.681630304527e-02 2.312074804416e-01 0.000000000000e+00
  -7.106728053060e-02 1.866675600062e-01 0.000000000000e+00
  -7.377418616509e-02 1.502961181226e-01 0.000000000000e+00
  -7.445820806896e-02 1.215232101449e-01 0.000000000000e+00
  -7.316651283857e-02 9.903341973455e-02 0.000000000000e+00
  -7.028508452092e-02 8.126941246818e-02 0.000000000000e+00
  -6.635234734070e-02 6.678123243850e-02 0.000000000000e+00
  -6.192042403279e-02 5.440410187724e-02 0.000000000000e+00
  -5.747554895419e-02 4.330017152326e-02 0.000000000000e+00
  -5.340688643297e-02 3.291855805871e-02 0.000000000000e+00
  -5.000512797588e-02 2.292217252826e-02 0.000000000000e+00
  -4.747397699070e-02 1.311283439133e-02 0.000000000000e+00
  -4.594315971254e-02 3.368595776481e-03 0.000000000000e+00
  -4.547694238016e-02 -6.405713744931e-03 0.000000000000e+00
  -4.607573270051e-02 -1.632105060840e-02 0.000000000000e+00
  -4.767043135513e-02 -2.654889592113e-02 0.000000000000e+00
  -5.011089355528e-02 -3.737619946672e-02 0.000000000000e+00
  -5.315240872240e-02 -4.927348279669e-02 0.000000000000e+00
  -5.644822329500e-02 -6.296891886321e-02 0.000000000000e+00
  -5.956125760193e-02 -7.950576660595e-02 0.000000000000e+00
  -6.201175831756e-02 -1.002426414606e-01 0.000000000000e+00
  -6.337510055142e-02 -1.267436096420e-01 0.000000000000e+00
  -6.343024407949e-02 -1.605104445935e-01 0.000000000000e+00
  -6.233259405696e-02 -2.025447931828e-01 0.000000000000e+00
  -6.075128023356e-02 -2.527962863059e-01 0.000000000000e+00
  -5.988657623143e-02 -3.096376405482e-01 0.000000000000e+00
  -6.129091809457e-02 -3.695721349150e-01 0.000000000000e+00
  -6.647281545500e-02 -4.273760312703e-01 0.000000000000e+00
  -7.635999637576e-02 -4.767790310165e-01 0.000000000000e+00
  -9.079804902317e-02 -5.116043583056e-01 0.000000000000e+00
  -1.083052619837e-01 -5.270932455143e-01 0.000000000000e+00
  -1.262473616967e-01 -5.210203115653e-01 0.000000000000e+00
  -1.414403336584e-01 -4.942373525911e-01 0.000000000000e+00
  -1.510002252007e-01 -4.504653479250e-01 0.000000000000e+00
  -1.531339767399e-01 -3.954125291952e-01 0.000000000000e+00
  -1.475784919110e-01 -3.355158385101e-01 0.000000000000e+00
  -1.355455647132e-01 -2.766931826870e-01 0.000000000000e+00
  -1.192392779062e-01 -2.234327761952e-01 0.000000000000e+00
  -1.011717563761e-01 -1.783826190542e-01 0.000000000000e+00
  -8.354102257543e-02 -1.424210190480e-01 0.000000000000e+00
  -6.785375265930e-02 -1.150591682109e-01 0.000000000000e+00
  -5.483928171305e-02 -9.498015679104e-02 0.000000000000e+00
  -4.458534191237e-02 -8.054571559505e-02 0.000000000000e+00
  -3.677519438314e-02 -7.016934366818e-02 0.000000000000e+00
  -3.091904277888e-02 -6.252659901206e-02 0.000000000000e+00
  -2.651964205287e-02 -5.662584667649e-02 0.000000000000e+00
  -2.315964929313e-02 -5.178713697782e-02 0.000000000000e+00
  -2.052767057955e-02 -4.757739917193e-02 0.000000000000e+00
  -1.840893903979e-02 -4.373722935848e-02 0.000000000000e+00
  -1.666240555891e-02 -4.011847388205e-02 0.000000000000e+00
  -1.519736567573e-02 -3.663897714059e-02 0.000000000000e+00
  -1.395512848735e-02 -3.325336951459e-02 0.000000000000e+00
  -1.289658104252e-02 -2.993584579283e-02 0.000000000000e+00
  -1.199450119071e-02 -2.667071977357e-02 0.000000000000e+00
  -1.122907285257e-02 -2.344751947894e-02 0.000000000000e+00
  -1.058533880972e-02 -2.025852657015e-02 0.000000000000e+00
  -1.005174927608e-02 -1.709755303736e-02 0.000000000000e+00
  -9.619310264906e-03 -1.395931926266e-02 0.000000000000e+00
  -9.281061054552e-03 -1.083911958999e-02 0.000000000000e+00
  -9.031739201997e-03 -7.732626750136e-03 0.000000000000e+00
  -8.867560066881e-03 -4.635765621394e-03 0.000000000000e+00
  -8.786072814229e-03 -1.544623072238e-03 0.000000000000e+00
  0.000000000000e+00 0.000000000000e+00 0.000000000000e+00
  0.000000000000e+00 0.000000000000e+00 0.000000000000e+00
  -1.023375870597e-02 1.550430033034e-03 0.000000000000e+00
  -1.033706054672e-02 4.651772994617e-03 0.000000000000e+00
  -1.054494923630e-02 7.754602153554e-03 0.000000000000e+00
  -1.086003767396e-02 1.086003767396e-02 0.000000000000e+00
  -1.128635959805e-02 1.396941121516e-02 0.000000000000e+00
  -1.182953137682e-02 1.708439555567e-02 0.000000000000e+00
  -1.249702465200e-02 2.020721092537e-02 0.000000000000e+00
  -1.329864029143e-02 2.334100024215e-02 0.000000000000e+00
  -1.424737189465e-02 2.649057387768e-02 0.000000000000e+00
  -1.536103136040e-02 2.966394070109e-02 0.000000000000e+00
  -1.666532338808e-02 3.287543492262e-02 0.000000000000e+00
  -1.819952054898e-02 3.615188132280e-02 0.000000000000e+00
  -2.002643042545e-02 3.954409970982e-02 0.000000000000e+00
  -2.224866643275e-02 4.314689615423e-02 0.000000000000e+00
  -2.503268019097e-02 4.713087696772e-02 0.000000000000e+00
  -2.863954532352e-02 5.178779145544e-02 0.000000000000e+00
  -3.345599705516e-02 5.758623948511e-02 0.000000000000e+00
  -4.001048177489e-02 6.522569426743e-02 0.000000000000e+00
  -4.894903880269e-02 7.566530016068e-02 0.000000000000e+00