# vtk DataFile Version 3.0
Karman Output
ASCII
DATASET RECTILINEAR_GRID
DIMENSIONS 101 101 1
X_COORDINATES 101 float
   0.000000000000e+00   9.900990099010e-03   1.980198019802e-02   2.970297029703e-02   3.960396039604e-02   4.950495049505e-02   5.940594059406e-02   6.930693069307e-02   7.920792079208e-02   8.910891089109e-02   9.900990099010e-02   1.089108910891e-01   1.188118811881e-01   1.287128712871e-01   1.386138613861e-01   1.485148514851e-01   1.584158415842e-01   1.683168316832e-01   1.782178217822e-01   1.881188118812e-01   1.980198019802e-01   2.079207920792e-01   2.178217821782e-01   2.277227722772e-01   2.376237623762e-01   2.475247524752e-01   2.574257425743e-01   2.673267326733e-01   2.772277227723e-01   2.871287128713e-01   2.970297029703e-01   3.069306930693e-01   3.168316831683e-01   3.267326732673e-01   3.366336633663e-01   3.465346534653e-01   3.564356435644e-01   3.663366336634e-01   3.762376237624e-01   3.861386138614e-01   3.960396039604e-01   4.059405940594e-01   4.158415841584e-01   4.257425742574e-01   4.356435643564e-01   4.455445544554e-01   4.554455445545e-01   4.653465346535e-01   4.752475247525e-01   4.851485148515e-01   4.950495049505e-01   5.049504950495e-01   5.148514851485e-01   5.247524752475e-01   5.346534653465e-01   5.445544554455e-01   5.544554455446e-01   5.643564356436e-01   5.742574257426e-01   5.841584158416e-01   5.940594059406e-01   6.039603960396e-01   6.138613861386e-01   6.237623762376e-01   6.336633663366e-01   6.435643564356e-01   6.534653465347e-01   6.633663366337e-01   6.732673267327e-01   6.831683168317e-01   6.930693069307e-01   7.029702970297e-01   7.128712871287e-01   7.227722772277e-01   7.326732673267e-01   7.425742574257e-01   7.524752475248e-01   7.623762376238e-01   7.722772277228e-01   7.821782178218e-01   7.920792079208e-01   8.019801980198e-01   8.118811881188e-01   8.217821782178e-01   8.316831683168e-01   8.415841584158e-01   8.514851485149e-01   8.613861386139e-01   8.712871287129e-01   8.811881188119e-01   8.910891089109e-01   9.009900990099e-01   9.108910891089e-01   9.207920792079e-01   9.306930693069e-01   9.405940594059e-01   9.504950495050e-01   9.603960396040e-01   9.702970297030e-01   9.801980198020e-01   9.900990099010e-01
Y_COORDINATES 101 float
   0.000000000000e+00   9.900990099010e-03   1.980198019802e-02   2.970297029703e-02   3.960396039604e-02   4.950495049505e-02   5.940594059406e-02   6.930693069307e-02   7.920792079208e-02   8.910891089109e-02   9.900990099010e-02   1.089108910891e-01   1.188118811881e-01   1.287128712871e-01   1.386138613861e-01   1.485148514851e-01   1.584158415842e-01   1.683168316832e-01   1.782178217822e-01   1.881188118812e-01   1.980198019802e-01   2.079207920792e-01   2.178217821782e-01   2.277227722772e-01   2.376237623762e-01   2.475247524752e-01   2.574257425743e-01   2.673267326733e-01   2.772277227723e-01   2.871287128713e-01   2.970297029703e-01   3.069306930693e-01   3.168316831683e-01   3.267326732673e-01   3.366336633663e-01   3.465346534653e-01   3.564356435644e-01   3.663366336634e-01   3.762376237624e-01   3.861386138614e-01   3.960396039604e-01   4.059405940594e-01   4.158415841584e-01   4.257425742574e-01   4.356435643564e-01   4.455445544554e-01   4.554455445545e-01   4.653465346535e-01   4.752475247525e-01   4.851485148515e-01   4.950495049505e-01   5.049504950495e-01   5.148514851485e-01   5.247524752475e-01   5.346534653465e-01   5.445544554455e-01   5.544554455446e-01   5.643564356436e-01   5.742574257426e-01   5.841584158416e-01   5.940594059406e-01   6.039603960396e-01   6.138613861386e-01   6.237623762376e-01   6.336633663366e-01   6.435643564356e-01   6.534653465347e-01   6.633663366337e-01   6.732673267327e-01   6.831683168317e-01   6.930693069307e-01   7.029702970297e-01   7.128712871287e-01   7.227722772277e-01   7.326732673267e-01   7.425742574257e-01   7.524752475248e-01   7.623762376238e-01   7.722772277228e-01   7.821782178218e-01   7.920792079208e-01   8.019801980198e-01   8.118811881188e-01   8.217821782178e-01   8.316831683168e-01   8.415841584158e-01   8.514851485149e-01   8.613861386139e-01   8.712871287129e-01   8.811881188119e-01   8.910891089109e-01   9.009900990099e-01   9.108910891089e-01   9.207920792079e-01   9.306930693069e-01   9.405940594059e-01   9.504950495050e-01   9.603960396040e-01   9.702970297030e-01   9.801980198020e-01   9.900990099010e-01
Z_COORDINATES 1 float
  0.000000000000e+00
POINT_DATA 10201
VECTORS E_field float
  0.000000000000e+00 0.000000000000e+00 0.000000000000e+00
  0.000000000000e+00 0.000000000000e+00 0.000000000000e+00
  0.000000000000e+00 0.000000000000e+00 0.000000000000e+00
  0.000000000000e+00 0.000000000000e+00 0.000000000000e+00
  0.000000000000e+00 0.000000000000e+00 0.000000000000e+00
  0.000000000000e+00 0.000000000000e+00 0.000000000000e+00
  0.000000000000e+00 0.000000000000e+00 0.000000000000e+00
  0.000000000000e+00 0.000000000000e+00 0.000000000000e+00
  0.000000000000e+00 0.000000000000e+00 0.000000000000e+00
  0.000000000000e+00 0.000000000000e+00 0.000000000000e+00
  0.000000000000e+00 0.000000000000e+00 0.000000000000e+00
  0.000000000000e+00 0.000000000000e+00 0.000000000000e+00
  0.000000000000e+00 0.000000000000e+00 0.000000000000e+00
  0.000000000000e+00 0.000000000000e+00 0.000000000000e+00
  0.000000000000e+00 0.000000000000e+00 0.000000000000e+00
  0.000000000000e+00 0.000000000000e+00 0.000000000000e+00
  0.000000000000e+00 0.000000000000e+00 0.000000000000e+00
  0.000000000000e+00 0.000000000000e+00 0.000000000000e+00
  0.000000000000e+00 0.000000000000e+00 0.000000000000e+00
  0.000000000000e+00 0.000000000000e+00 0.000000000000e+00
  0.000000000000e+00 0.000000000000e+00 0.000000000000e+00
  0.000000000000e+00 0.000000000000e+00 0.000000000000e+00
  0.000000000000e+00 0.000000000000e+00 0.000000000000e+00
  0.000000000000e+00 0.000000000000e+00 0.000000000000e+00
  0.000000000000e+00 0.000000000000e+00 0.000000000000e+00
  0.000000000000e+00 0.000000000000e+00 0.000000000000e+00
  0.000000000000e+00 0.000000000000e+00 0.000000000000e+00
  0.000000000000e+00 0.000000000000e+00 0.000000000000e+00
  0.000000000000e+00 0.000000000000e+00 0.000000000000e+00
  0.000000000000e+00 0.000000000000e+00 0.000000000000e+00
  0.000000000000e+00 0.000000000000e+00 0.000000000000e+00
  0.000000000000e+00 0.000000000000e+00 0.000000000000e+00
  0.000000000000e+00 0.000000000000e+00 0.000000000000e+00
  0.000000000000e+00 0.000000000000e+00 0.000000000000e+00
  0.000000000000e+00 0.000000000000e+00 0.000000000000e+00
  0.000000000000e+00 0.000000000000e+00 0.000000000000e+00
  0.000000000000e+00 0.000000000000e+00 0.000000000000e+00
  0.000000000000e+00 0.000000000000e+00 0.000000000000e+00
  0.000000000000e+00 0.000000000000e+00 0.000000000000e+00
  0.000000000000e+00 0.000000000000e+00 0.000000000000e+00
  0.000000000000e+00 0.000000000000e+00 0.000000000000e+00
  0.000000000000e+00 0.000000000000e+00 0.000000000000e+00
  0.000000000000e+00 0.000000000000e+00 0.000000000000e+00
  0.000000000000e+00 0.000000000000e+00 0.000000000000e+00
  0.000000000000e+00 0.000000000000e+00 0.000000000000e+00
  0.000000000000e+00 0.000000000000e+00 0.000000000000e+00
  0.000000000000e+00 0.000000000000e+00 0.000000000000e+00
  0.000000000000e+00 0.000000000000e+00 0.000000000000e+00
  0.000000000000e+00 0.000000000000e+00 0.000000000000e+00
  0.000000000000e+00 0.000000000000e+00 0.000000000000e+00
  0.000000000000e+00 0.000000000000e+00 0.000000000000e+00
  0.000000000000e+00 0.000000000000e+00 0.000000000000e+00
  0.000000000000e+00 0.000000000000e+00 0.000000000000e+00
  0.000000000000e+00 0.000000000000e+00 0.000000000000e+00
  0.000000000000e+00 0.000000000000e+00 0.000000000000e+00
  0.000000000000e+00 0.000000000000e+00 0.000000000000e+00
  0.000000000000e+00 0.000000000000e+00 0.000000000000e+00
  0.000000000000e+00 0.000000000000e+00 0.000000000000e+00
  0.000000000000e+00 0.000000000000e+00 0.000000000000e+00
  0.000000000000e+00 0.000000000000e+00 0.000000000000e+00
  0.000000000000e+00 0.000000000000e+00 0.000000000000e+00
  0.000000000000e+00 0.000000000000e+00 0.000000000000e+00
  0.000000000000e+00 0.000000000000e+00 0.000000000000e+00
  0.000000000000e+00 0.000000000000e+00 0.000000000000e+00
  0.000000000000e+00 0.000000000000e+00 0.000000000000e+00
  0.000000000000e+00 0.000000000000e+00 0.000000000000e+00
  0.000000000000e+00 0.000000000000e+00 0.000000000000e+00
  0.000000000000e+00 0.000000000000e+00 0.000000000000e+00
  0.000000000000e+00 0.000000000000e+00 0.000000000000e+00
  0.000000000000e+00 0.000000000000e+00 0.000000000000e+00
  0.000000000000e+00 0.000000000000e+00 0.000000000000e+00
  0.000000000000e+00 0.000000000000e+00 0.000000000000e+00
  0.000000000000e+00 0.000000000000e+00 0.000000000000e+00
  0.000000000000e+00 0.000000000000e+00 0.000000000000e+00
  0.000000000000e+00 0.000000000000e+00 0.000000000000e+00
  0.000000000000e+00 0.000000000000e+00 0.000000000000e+00
  0.000000000000e+00 0.000000000000e+00 0.000000000000e+00
  0.000000000000e+00 0.000000000000e+00 0.000000000000e+00
  0.000000000000e+00 0.000000000000e+00 0.000000000000e+00
  0.000000000000e+00 0.000000000000e+00 0.000000000000e+00
  0.000000000000e+00 0.000000000000e+00 0.000000000000e+00
  0.000000000000e+00 0.000000000000e+00 0.000000000000e+00
  0.000000000000e+00 0.000000000000e+00 0.000000000000e+00
  0.000000000000e+00 0.000000000000e+00 0.000000000000e+00
  0.000000000000e+00 0.000000000000e+00 0.000000000000e+00
  0.000000000000e+00 0.000000000000e+00 0.000000000000e+00
  0.000000000000e+00 0.000000000000e+00 0.000000000000e+00
  0.000000000000e+00 0.000000000000e+00 0.000000000000e+00
  0.000000000000e+00 0.000000000000e+00 0.000000000000e+00
  0.000000000000e+00 0.000000000000e+00 0.000000000000e+00
  0.000000000000e+00 0.000000000000e+00 0.000000000000e+00
  0.000000000000e+00 0.000000000000e+00 0.000000000000e+00
  0.000000000000e+00 0.000000000000e+00 0.000000000000e+00
  0.000000000000e+00 0.000000000000e+00 0.000000000000e+00
  0.000000000000e+00 0.000000000000e+00 0.000000000000e+00
  0.000000000000e+00 0.000000000000e+00 0.000000000000e+00
  0.000000000000e+00 0.000000000000e+00 0.000000000000e+00
  0.000000000000e+00 0.000000000000e+00 0.000000000000e+00
  0.000000000000e+00 0.000000000000e+00 0.000000000000e+00
  0.000000000000e+00 0.000000000000e+00 0.000000000000e+00
  0.000000000000e+00 0.000000000000e+00 0.000000000000e+00
  0.000000000000e+00 0.000000000000e+00 0.000000000000e+00
  -1.245765798530e-02 1.245765798530e-02 0.000000000000e+00
  -1.350494675639e-02 3.906112874291e-02 0.000000000000e+00
  -1.539057625045e-02 6.973820044997e-02 0.000000000000e+00
  -1.773992176988e-02 1.044162712956e-01 0.000000000000e+00
  -2.008811102206e-02 1.403070117709e-01 0.000000000000e+00
  -2.196914237679e-02 1.728129302369e-01 0.000000000000e+00
  -2.299862979434e-02 1.969653938639e-01 0.000000000000e+00
  -2.293373141056e-02 2.087052174203e-01 0.000000000000e+00
  -2.170036698772e-02 2.056953699646e-01 0.000000000000e+00
  -1.938516043269e-02 1.877393682911e-01 0.000000000000e+00
  -1.619682688910e-02 1.569363013167e-01 0.000000000000e+00
  -1.240867427994e-02 1.174952461418e-01 0.000000000000e+00
  -8.299077791050e-03 7.500179825362e-02 0.000000000000e+00
  -4.107436186867e-03 3.512030046553e-02 0.000000000000e+00
  -1.725080853090e-05 2.110624176199e-03 0.000000000000e+00
  3.833080162453e-03 -2.222003687541e-02 0.000000000000e+00
  7.322550308678e-03 -3.866889984009e-02 0.000000000000e+00
  1.031982135728e-02 -4.989882089781e-02 0.000000000000e+00
  1.267035771632e-02 -5.925524291584e-02 0.000000000000e+00
  1.420482440214e-02 -6.970879289239e-02 0.000000000000e+00
  1.476538751445e-02 -8.326658346011e-02 0.000000000000e+00
  1.424066664530e-02 -1.008252340430e-01 0.000000000000e+00
  1.259986530370e-02 -1.221999270817e-01 0.000000000000e+00
  9.919485074871e-03 -1.461072929844e-01 0.000000000000e+00
  6.397699949953e-03 -1.701356067146e-01 0.000000000000e+00
  2.350193564940e-03 -1.909627803978e-01 0.000000000000e+00
  -1.820001262971e-03 -2.050507536435e-01 0.000000000000e+00
  -5.682297056759e-03 -2.097320288677e-01 0.000000000000e+00
  -8.860838007892e-03 -2.042398885226e-01 0.000000000000e+00
  -1.111883839918e-02 -1.901230262057e-01 0.000000000000e+00
  -1.241703535946e-02 -1.707507817213e-01 0.000000000000e+00
  -1.292274845472e-02 -1.500928392532e-01 0.000000000000e+00
  -1.296179350838e-02 -1.313336453164e-01 0.000000000000e+00
  -1.292569043681e-02 -1.159343720007e-01 0.000000000000e+00
  -1.316243097460e-02 -1.034864781364e-01 0.000000000000e+00
  -1.388439625836e-02 -9.229498757268e-02 0.000000000000e+00
  -1.512054248247e-02 -8.031658966475e-02 0.000000000000e+00
  -1.672485254778e-02 -6.600861999758e-02 0.000000000000e+00
  -1.843498888042e-02 -4.881846518457e-02 0.000000000000e+00
  -1.996004202054e-02 -2.930496159487e-02 0.000000000000e+00
  -2.106860439271e-02 -9.029672907010e-03 0.000000000000e+00
  -2.164996272197e-02 9.700620198654e-03 0.000000000000e+00
  -2.173129758220e-02 2.429771045400e-02 0.000000000000e+00
  -2.144933338500e-02 3.261932044558e-02 0.000000000000e+00
  -2.099079848522e-02 3.379274721473e-02 0.000000000000e+00
  -2.052642926938e-02 2.870147266043e-02 0.000000000000e+00
  -2.016376110150e-02 1.970627972345e-02 0.000000000000e+00
  -1.993424903613e-02 9.578826483494e-03 0.000000000000e+00
  -1.981458957097e-02 1.948865260653e-04 0.000000000000e+00
  -1.976740693810e-02 -8.192643268170e-03 0.000000000000e+00
  -1.977908000120e-02 -1.659342320501e-02 0.000000000000e+00
  -1.987536641407e-02 -2.605223389702e-02 0.000000000000e+00
  -2.010704146419e-02 -3.638410778084e-02 0.000000000000e+00
  -2.051270235339e-02 -4.572387630976e-02 0.000000000000e+00
  -2.107745404060e-02 -5.116436100414e-02 0.000000000000e+00
  -2.170911449044e-02 -5.003190807348e-02 0.000000000000e+00
  -2.224644685054e-02 -4.100840029925e-02 0.000000000000e+00
  -2.249998578406e-02 -2.454163292562e-02 0.000000000000e+00
  -2.231169648352e-02 -2.522259184307e-03 0.000000000000e+00
  -2.161135539020e-02 2.240106313620e-02 0.000000000000e+00
  -2.044826898043e-02 4.748407532247e-02 0.000000000000e+00
  -1.898546462729e-02 7.038725128537e-02 0.000000000000e+00
  -1.745573501619e-02 8.957188634386e-02 0.000000000000e+00
  -1.609077494987e-02 1.046225140680e-01 0.000000000000e+00
  -1.504340086891e-02 1.163638653102e-01 0.000000000000e+00
  -1.432674808039e-02 1.265701451153e-01 0.000000000000e+00
  -1.379187380670e-02 1.372130588739e-01 0.000000000000e+00
  -1.315559537782e-02 1.494794477100e-01 0.000000000000e+00
  -1.207518225803e-02 1.630030055298e-01 0.000000000000e+00
  -1.025020632199e-02 1.757334871625e-01 0.000000000000e+00
  -7.520704150186e-03 1.845929234614e-01 0.000000000000e+00
  -3.930122642117e-03 1.866731319698e-01 0.000000000000e+00
  2.672500038118e-04 1.804296258376e-01 0.000000000000e+00
  4.655506280433e-03 1.663143864621e-01 0.000000000000e+00
  8.745286714483e-03 1.465952811132e-01 0.000000000000e+00
  1.207294538657e-02 1.245480500192e-01 0.000000000000e+00
  1.428444584357e-02 1.034853021105e-01 0.000000000000e+00
  1.518773213892e-02 8.603132021836e-02 0.000000000000e+00
  1.476843654495e-02 7.375166415340e-02 0.000000000000e+00
  1.317099781193e-02 6.697700024970e-02 0.000000000000e+00
  1.065098958721e-02 6.464085547228e-02 0.000000000000e+00
  7.508330507914e-03 6.416624524761e-02 0.000000000000e+00
  4.016849049286e-03 6.166548503031e-02 0.000000000000e+00
  3.705809958112e-04 5.272280138427e-02 0.000000000000e+00
  -3.334157949129e-03 3.374246137946e-02 0.000000000000e+00
  -7.072508133022e-03 3.428417746521e-03 0.000000000000e+00
  -1.082955128127e-02 -3.628810395246e-02 0.000000000000e+00
  -1.452903022724e-02 -8.041072352509e-02 0.000000000000e+00
  -1.798495558093e-02 -1.221577984652e-01 0.000000000000e+00
  -2.090180490647e-02 -1.548290610019e-01 0.000000000000e+00
  -2.293007138383e-02 -1.734978769021e-01 0.000000000000e+00
  -2.376126816234e-02 -1.759975167033e-01 0.000000000000e+00
  -2.323032650513e-02 -1.631222276030e-01 0.000000000000e+00
  -2.139026280707e-02 -1.382541684062e-01 0.000000000000e+00
  -1.853402033405e-02 -1.065888674021e-01 0.000000000000e+00
  -1.515593083745e-02 -7.396406439025e-02 0.000000000000e+00
  -1.186292413813e-02 -4.533177864416e-02 0.000000000000e+00
  -9.257881343855e-03 -2.323582139185e-02 0.000000000000e+00
  -7.822169604974e-03 -6.973211405222e-03 0.000000000000e+00
  0.000000000000e+00 0.000000000000e+00 0.000000000000e+00
  0.000000000000e+00 0.000000000000e+00 0.000000000000e+00
  -3.906112874291e-02 1.350494675639e-02 0.000000000000e+00
  -4.198788415792e-02 4.198788415792e-02 0.000000000000e+00
  -4.723617464918e-02 7.394536502027e-02 0.000000000000e+00
  -5.372457166496e-02 1.090468492605e-01 0.000000000000e+00
  -6.011824031194e-02 1.444182917051e-01 0.000000000000e+00
  -6.508845103351e-02 1.755528923789e-01 0.000000000000e+00
  -6.754942793096e-02 1.977158960369e-01 0.000000000000e+00
  -6.682688272722e-02 2.071672716598e-01 0.000000000000e+00
  -6.273306587196e-02 2.019061344470e-01 0.000000000000e+00
  -5.554305985126e-02 1.820233912330e-01 0.000000000000e+00
  -4.588513922274e-02 1.498060242028e-01 0.000000000000e+00
  -3.457593712735e-02 1.095281685512e-01 0.000000000000e+00
  -2.244643627050e-02 6.672977849845e-02 0.000000000000e+00
  -1.020911704911e-02 2.696335939513e-02 0.000000000000e+00
  1.597636869643e-03 -5.629374050482e-03 0.000000000000e+00
  1.258258016427e-02 -2.931531291434e-02 0.000000000000e+00
  2.242080550854e-02 -4.490131929166e-02 0.000000000000e+00
  3.076790077184e-02 -5.501076775814e-02 0.000000000000e+00
  3.721427556206e-02 -6.294020720475e-02 0.000000000000e+00
  4.130141916300e-02 -7.164543889024e-02 0.000000000000e+00
  4.259310647736e-02 -8.318218788893e-02 0.000000000000e+00
  4.077598002358e-02 -9.856778229129e-02 0.000000000000e+00
  3.576149539773e-02 -1.178020928660e-01 0.000000000000e+00
  2.776826168069e-02 -1.398315132542e-01 0.000000000000e+00
  1.736829331492e-02 -1.624896329541e-01 0.000000000000e+00
  5.477587739098e-03 -1.826705421974e-01 0.000000000000e+00
  -6.731089528160e-03 -1.969641197487e-01 0.000000000000e+00
  -1.800316496074e-02 -2.026842915362e-01 0.000000000000e+00
  -2.724310745548e-02 -1.988691424083e-01 0.000000000000e+00
  -3.376086925064e-02 -1.867180101335e-01 0.000000000000e+00
  -3.744246006216e-02 -1.691760100216e-01 0.000000000000e+00
  -3.877669902111e-02 -1.498276588985e-01 0.000000000000e+00
  -3.871618396332e-02 -1.316202956747e-01 0.000000000000e+00
  -3.840881445602e-02 -1.159911942203e-01 0.000000000000e+00
  -3.888142623808e-02 -1.027203035953e-01 0.000000000000e+00
  -4.077196948040e-02 -9.044865358473e-02 0.000000000000e+00
  -4.418802626572e-02 -7.751072063820e-02 0.000000000000e+00
  -4.872661372235e-02 -6.267159149384e-02 0.000000000000e+00
  -5.363919541217e-02 -4.553277565280e-02 0.000000000000e+00
  -5.808298105378e-02 -2.662181232546e-02 0.000000000000e+00
  -6.137684681491e-02 -7.310394015507e-03 0.000000000000e+00
  -6.318302670573e-02 1.036887956455e-02 0.000000000000e+00
  -6.356302067178e-02 2.409077996227e-02 0.000000000000e+00
  -6.290024915682e-02 3.188151528340e-02 0.000000000000e+00
  -6.172879156634e-02 3.290055995364e-02 0.000000000000e+00
  -6.053966855792e-02 2.794016776966e-02 0.000000000000e+00
  -5.963983311462e-02 1.920508107598e-02 0.000000000000e+00
  -5.911192056933e-02 9.322600587818e-03 0.000000000000e+00
  -5.887646330760e-02 9.599575061463e-05 0.000000000000e+00
  -5.881336366260e-02 -8.204034732303e-03 0.000000000000e+00
  -5.887588044939e-02 -1.650784187432e-02 0.000000000000e+00
  -5.913821902788e-02 -2.577919024320e-02 0.000000000000e+00
  -5.975276058531e-02 -3.581093485668e-02 0.000000000000e+00
  -6.083860465267e-02 -4.480554432640e-02 0.000000000000e+00
  -6.235824494655e-02 -4.999830106974e-02 0.000000000000e+00
  -6.404749800095e-02 -4.887705457508e-02 0.000000000000e+00
  -6.544139490866e-02 -4.023202460315e-02 0.000000000000e+00
  -6.599625426661e-02 -2.450961040002e-02 0.000000000000e+00
  -6.526550843900e-02 -3.473316900291e-03 0.000000000000e+00
  -6.306309805671e-02 2.044936932420e-02 0.000000000000e+00
  -5.955199623160e-02 4.476158085789e-02 0.000000000000e+00
  -5.522197471567e-02 6.731691984934e-02 0.000000000000e+00
  -5.075729901172e-02 8.664781244218e-02 0.000000000000e+00
  -4.682914534103e-02 1.022534742171e-01 0.000000000000e+00
  -4.387147690599e-02 1.147278626350e-01 0.000000000000e+00
  -4.190868153628e-02 1.255266996260e-01 0.000000000000e+00
  -4.049504094079e-02 1.363079894902e-01 0.000000000000e+00
  -3.879840961588e-02 1.480516073378e-01 0.000000000000e+00
  -3.581747068988e-02 1.603694938551e-01 0.000000000000e+00
  -3.067586175165e-02 1.714004139623e-01 0.000000000000e+00
  -2.290477647550e-02 1.784254092133e-01 0.000000000000e+00
  -1.262357645626e-02 1.789688646904e-01 0.000000000000e+00
  -5.600499608823e-04 1.718729939756e-01 0.000000000000e+00
  1.209284759642e-02 1.578298644902e-01 0.000000000000e+00
  2.393232027831e-02 1.391505499692e-01 0.000000000000e+00
  3.363179898922e-02 1.189656437803e-01 0.000000000000e+00
  4.018121381137e-02 1.003067930703e-01 0.000000000000e+00
  4.303430036658e-02 8.545345640798e-02 0.000000000000e+00
  4.214880261872e-02 7.563432130562e-02 0.000000000000e+00
  3.792727490794e-02 7.091330954126e-02 0.000000000000e+00
  3.107743338500e-02 7.007439592838e-02 0.000000000000e+00
  2.242169960097e-02 7.053109765484e-02 0.000000000000e+00
  1.270089459050e-02 6.851291909218e-02 0.000000000000e+00
  2.429350116121e-03 5.979317985026e-02 0.000000000000e+00
  -8.146657866984e-03 4.095282984151e-02 0.000000000000e+00
  -1.896640335196e-02 1.077614495333e-02 0.000000000000e+00
  -2.997654269097e-02 -2.886864867202e-02 0.000000000000e+00
  -4.093116554739e-02 -7.317607700314e-02 0.000000000000e+00
  -5.126177647935e-02 -1.156059087015e-01 0.000000000000e+00
  -6.008687313191e-02 -1.496390047875e-01 0.000000000000e+00
  -6.637639506171e-02 -1.703701447094e-01 0.000000000000e+00
  -6.922383957076e-02 -1.754466076085e-01 0.000000000000e+00
  -6.813616009624e-02 -1.652917578295e-01 0.000000000000e+00
  -6.324512099148e-02 -1.428157409824e-01 0.000000000000e+00
  -5.537160349954e-02 -1.127570547908e-01 0.000000000000e+00
  -4.592082702570e-02 -8.062474297199e-02 0.000000000000e+00
  -3.663324216710e-02 -5.125169162035e-02 0.000000000000e+00
  -2.925021888312e-02 -2.730397449392e-02 0.000000000000e+00
  -2.517025938278e-02 -8.420729542367e-03 0.000000000000e+00
  0.000000000000e+00 0.000000000000e+00 0.000000000000e+00
  0.000000000000e+00 0.000000000000e+00 0.000000000000e+00
  -6.973820044997e-02 1.539057625045e-02 0.000000000000e+00
  -7.394536502027e-02 4.723617464917e-02 0.000000000000e+00
  -8.142257581058e-02 8.142257581058e-02 0.000000000000e+00
  -9.050691222079e-02 1.171423718962e-01 0.000000000000e+00
  -9.916824475998e-02 1.513777702556e-01 0.000000000000e+00
  -1.054153827423e-01 1.798107625323e-01 0.000000000000e+00
  -1.076536466114e-01 1.981572666502e-01 0.000000000000e+00
  -1.049291568514e-01 2.032788660827e-01 0.000000000000e+00
  -9.703191738252e-02 1.938034837000e-01 0.000000000000e+00
  -8.445685381793e-02 1.703609723948e-01 0.000000000000e+00
  -6.824087659982e-02 1.355945451944e-01 0.000000000000e+00
  -4.971458239787e-02 9.390415126219e-02 0.000000000000e+00
  -3.023088391455e-02 5.074059644729e-02 0.000000000000e+00
  -1.094628600686e-02 1.143062431719e-02 0.000000000000e+00
  7.283288570582e-03 -2.013296746874e-02 0.000000000000e+00
  2.387387075831e-02 -4.238724497844e-02 0.000000000000e+00
  3.838868301060e-02 -5.618242482412e-02 0.000000000000e+00
  5.039150326170e-02 -6.407957774007e-02 0.000000000000e+00
  5.935344635416e-02 -6.927971510549e-02 0.000000000000e+00
  6.465553885226e-02 -7.469516708854e-02 0.000000000000e+00
  6.568415728648e-02 -8.245276543921e-02 0.000000000000e+00
  6.198370070622e-02 -9.377962170698e-02 0.000000000000e+00
  5.342214810006e-02 -1.090142162183e-01 0.000000000000e+00
  4.033219404021e-02 -1.275362021250e-01 0.000000000000e+00
  2.359619104831e-02 -1.476489727257e-01 0.000000000000e+00
  4.639599192454e-03 -1.666639049942e-01 0.000000000000e+00
  -1.470323658518e-02 -1.814192439071e-01 0.000000000000e+00
  -3.246508531899e-02 -1.891952432114e-01 0.000000000000e+00
  -4.692646192514e-02 -1.886568716321e-01 0.000000000000e+00
  -5.700413617707e-02 -1.803348448623e-01 0.000000000000e+00
  -6.251951887340e-02 -1.663622017843e-01 0.000000000000e+00
  -6.424186533459e-02 -1.495848817143e-01 0.000000000000e+00
  -6.367367392769e-02 -1.324917793208e-01 0.000000000000e+00
  -6.263548229144e-02 -1.164652717121e-01 0.000000000000e+00
  -6.277549354926e-02 -1.016336030529e-01 0.000000000000e+00
  -6.515088083472e-02 -8.726942358028e-02 0.000000000000e+00
  -6.999911230476e-02 -7.242566235487e-02 0.000000000000e+00
  -7.675417195037e-02 -5.646300262224e-02 0.000000000000e+00
  -8.428744765642e-02 -3.929550704684e-02 0.000000000000e+00
  -9.128882701529e-02 -2.141391581022e-02 0.000000000000e+00
  -9.666651346879e-02 -3.846738146108e-03 0.000000000000e+00
  -9.984306240861e-02 1.188795275372e-02 0.000000000000e+00
  -1.008613612200e-01 2.396999984117e-02 0.000000000000e+00
  -1.002796027967e-01 3.075776581767e-02 0.000000000000e+00
  -9.890913735459e-02 3.148238678879e-02 0.000000000000e+00
  -9.750548225199e-02 2.676556325620e-02 0.000000000000e+00
  -9.653560393229e-02 1.850997226110e-02 0.000000000000e+00
  -9.610566349248e-02 9.059856819172e-03 0.000000000000e+00
  -9.605852649750e-02 7.614559416218e-05 0.000000000000e+00
  -9.617333334258e-02 -8.132477147435e-03 0.000000000000e+00
  -9.635609992357e-02 -1.633411599061e-02 0.000000000000e+00
  -9.672082576015e-02 -2.532585174964e-02 0.000000000000e+00
  -9.751940898385e-02 -3.485114874135e-02 0.000000000000e+00
  -9.895703238653e-02 -4.324186325979e-02 0.000000000000e+00
  -1.009894530380e-01 -4.800992156521e-02 0.000000000000e+00
  -1.032109947882e-01 -4.695463969925e-02 0.000000000000e+00
  -1.049016819401e-01 -3.906985585725e-02 0.000000000000e+00
  -1.052292750039e-01 -2.478932714338e-02 0.000000000000e+00
  -1.035321529929e-01 -5.621468372109e-03 0.000000000000e+00
  -9.957350183262e-02 1.643645893426e-02 0.000000000000e+00
  -9.366832515723e-02 3.935821249104e-02 0.000000000000e+00
  -8.663196509972e-02 6.135390644724e-02 0.000000000000e+00
  -7.955903212358e-02 8.107321702228e-02 0.000000000000e+00
  -7.349378105520e-02 9.783466479980e-02 0.000000000000e+00
  -6.908570285992e-02 1.117809253573e-01 0.000000000000e+00
  -6.633348830373e-02 1.237586269372e-01 0.000000000000e+00
  -6.450436054165e-02 1.348332937971e-01 0.000000000000e+00
  -6.227314065813e-02 1.455984518085e-01 0.000000000000e+00
  -5.806192429570e-02 1.556304940883e-01 0.000000000000e+00
  -5.049345316697e-02 1.634293336582e-01 0.000000000000e+00
  -3.882405429382e-02 1.669560053662e-01 0.000000000000e+00
  -2.321855899040e-02 1.645515732139e-01 0.000000000000e+00
  -4.778085575220e-03 1.557862855411e-01 0.000000000000e+00
  1.468378989356e-02 1.418017998984e-01 0.000000000000e+00
  3.303624964400e-02 1.249866821285e-01 0.000000000000e+00
  4.827073483573e-02 1.081955477182e-01 0.000000000000e+00
  5.886494266229e-02 9.393326648361e-02 0.000000000000e+00
  6.399820727815e-02 8.384063182359e-02 0.000000000000e+00
  6.359877834539e-02 7.853207257062e-02 0.000000000000e+00
  5.823995614925e-02 7.759590818317e-02 0.000000000000e+00
  4.892050759835e-02 7.956108736031e-02 0.000000000000e+00
  3.677957480327e-02 8.184107280203e-02 0.000000000000e+00
  2.281561278933e-02 8.088771096939e-02 0.000000000000e+00
  7.692607567218e-03 7.281293766953e-02 0.000000000000e+00
  -8.295489581399e-03 5.449717715396e-02 0.000000000000e+00
  -2.508017362580e-02 2.483622717026e-02 0.000000000000e+00
  -4.254437336990e-02 -1.445439180583e-02 0.000000000000e+00
  -6.023299835669e-02 -5.894708602611e-02 0.000000000000e+00
  -7.718129218193e-02 -1.025559949213e-01 0.000000000000e+00
  -9.195483570420e-02 -1.390902783928e-01 0.000000000000e+00
  -1.029126611175e-01 -1.636715237609e-01 0.000000000000e+00
  -1.086176496351e-01 -1.735927955304e-01 0.000000000000e+00
  -1.082644970613e-01 -1.685864019559e-01 0.000000000000e+00
  -1.019924183046e-01 -1.506842147175e-01 0.000000000000e+00
  -9.098874023405e-02 -1.237657766182e-01 0.000000000000e+00
  -7.734828230276e-02 -9.270725554970e-02 0.000000000000e+00
  -6.371264496591e-02 -6.209240123808e-02 0.000000000000e+00
  -5.276347366588e-02 -3.479545946019e-02 0.000000000000e+00
  -4.667925049515e-02 -1.109342724717e-02 0.000000000000e+00
  0.000000000000e+00 0.000000000000e+00 0.000000000000e+00
  0.000000000000e+00 0.000000000000e+00 0.000000000000e+00
  -1.044162712956e-01 1.773992176988e-02 0.000000000000e+00
  -1.090468492605e-01 5.372457166495e-02 0.000000000000e+00
  -1.171423718962e-01 9.050691222079e-02 0.000000000000e+00
  -1.266570820951e-01 1.266570820951e-01 0.000000000000e+00
  -1.351379907482e-01 1.590053012489e-01 0.000000000000e+00
  -1.402387002385e-01 1.835310790116e-01 0.000000000000e+00
  -1.401455573092e-01 1.965820711106e-01 0.000000000000e+00
  -1.338464353660e-01 1.958304499191e-01 0.000000000000e+00
  -1.212291163690e-01 1.807373413978e-01 0.000000000000e+00
  -1.030243445719e-01 1.526472793353e-01 0.000000000000e+00
  -8.061545306142e-02 1.146833695253e-01 0.000000000000e+00
  -5.574733514241e-02 7.142091481038e-02 0.000000000000e+00
  -3.019459799373e-02 2.818739726711e-02 0.000000000000e+00
  -5.475672063287e-03 -1.001970034076e-02 0.000000000000e+00
  1.730313013992e-02 -3.969101959143e-02 0.000000000000e+00
  3.743526876048e-02 -5.955191366403e-02 0.000000000000e+00
  5.446495897735e-02 -7.056225860769e-02 0.000000000000e+00
  6.798916553293e-02 -7.522677076319e-02 0.000000000000e+00
  7.751022268998e-02 -7.661552233188e-02 0.000000000000e+00
  8.240425505278e-02 -7.755548472305e-02 0.000000000000e+00
  8.201446189428e-02 -8.023127308042e-02 0.000000000000e+00