# vtk DataFile Version 3.0
Karman Output
ASCII
DATASET RECTILINEAR_GRID
DIMENSIONS 101 101 1
X_COORDINATES 101 float
   0.000000000000e+00   9.900990099010e-03   1.980198019802e-02   2.970297029703e-02   3.960396039604e-02   4.950495049505e-02   5.940594059406e-02   6.930693069307e-02   7.920792079208e-02   8.910891089109e-02   9.900990099010e-02   1.089108910891e-01   1.188118811881e-01   1.287128712871e-01   1.386138613861e-01   1.485148514851e-01   1.584158415842e-01   1.683168316832e-01   1.782178217822e-01   1.881188118812e-01   1.980198019802e-01   2.079207920792e-01   2.178217821782e-01   2.277227722772e-01   2.376237623762e-01   2.475247524752e-01   2.574257425743e-01   2.673267326733e-01   2.772277227723e-01   2.871287128713e-01   2.970297029703e-01   3.069306930693e-01   3.168316831683e-01   3.267326732673e-01   3.366336633663e-01   3.465346534653e-01   3.564356435644e-01   3.663366336634e-01   3.762376237624e-01   3.861386138614e-01   3.960396039604e-01   4.059405940594e-01   4.158415841584e-01   4.257425742574e-01   4.356435643564e-01   4.455445544554e-01   4.554455445545e-01   4.653465346535e-01   4.752475247525e-01   4.851485148515e-01   4.950495049505e-01   5.049504950495e-01   5.148514851485e-01   5.247524752475e-01   5.346534653465e-01   5.445544554455e-01   5.544554455446e-01   5.643564356436e-01   5.742574257426e-01   5.841584158416e-01   5.940594059406e-01   6.039603960396e-01   6.138613861386e-01   6.237623762376e-01   6.336633663366e-01   6.435643564356e-01   6.534653465347e-01   6.633663366337e-01   6.732673267327e-01   6.831683168317e-01   6.930693069307e-01   7.029702970297e-01   7.128712871287e-01   7.227722772277e-01   7.326732673267e-01   7.425742574257e-01   7.524752475248e-01   7.623762376238e-01   7.722772277228e-01   7.821782178218e-01   7.920792079208e-01   8.019801980198e-01   8.118811881188e-01   8.217821782178e-01   8.316831683168e-01   8.415841584158e-01   8.514851485149e-01   8.613861386139e-01   8.712871287129e-01   8.811881188119e-01   8.910891089109e-01   9.009900990099e-01   9.108910891089e-01   9.207920792079e-01   9.306930693069e-01   9.405940594059e-01   9.504950495050e-01   9.603960396040e-01   9.702970297030e-01   9.801980198020e-01   9.900990099010e-01
Y_COORDINATES 101 float
   0.000000000000e+00   9.900990099010e-03   1.980198019802e-02   2.970297029703e-02   3.960396039604e-02   4.950495049505e-02   5.940594059406e-02   6.930693069307e-02   7.920792079208e-02   8.910891089109e-02   9.900990099010e-02   1.089108910891e-01   1.188118811881e-01   1.287128712871e-01   1.386138613861e-01   1.485148514851e-01   1.584158415842e-01   1.683168316832e-01   1.782178217822e-01   1.881188118812e-01   1.980198019802e-01   2.079207920792e-01   2.178217821782e-01   2.277227722772e-01   2.376237623762e-01   2.475247524752e-01   2.574257425743e-01   2.673267326733e-01   2.772277227723e-01   2.871287128713e-01   2.970297029703e-01   3.069306930693e-01   3.168316831683e-01   3.267326732673e-01   3.366336633663e-01   3.465346534653e-01   3.564356435644e-01   3.663366336634e-01   3.762376237624e-01   3.861386138614e-01   3.960396039604e-01   4.059405940594e-01   4.158415841584e-01   4.257425742574e-01   4.356435643564e-01   4.455445544554e-01   4.554455445545e-01   4.653465346535e-01   4.752475247525e-01   4.851485148515e-01   4.950495049505e-01   5.049504950495e-01   5.148514851485e-01   5.247524752475e-01   5.346534653465e-01   5.445544554455e-01   5.544554455446e-01   5.643564356436e-01   5.742574257426e-01   5.841584158416e-01   5.940594059406e-01   6.039603960396e-01   6.138613861386e-01   6.237623762376e-01   6.336633663366e-01   6.435643564356e-01   6.534653465347e-01   6.633663366337e-01   6.732673267327e-01   6.831683168317e-01   6.930693069307e-01   7.029702970297e-01   7.128712871287e-01   7.227722772277e-01   7.326732673267e-01   7.425742574257e-01   7.524752475248e-01   7.623762376238e-01   7.722772277228e-01   7.821782178218e-01   7.920792079208e-01   8.019801980198e-01   8.118811881188e-01   8.217821782178e-01   8.316831683168e-01   8.415841584158e-01   8.514851485149e-01   8.613861386139e-01   8.712871287129e-01   8.811881188119e-01   8.910891089109e-01   9.009900990099e-01   9.108910891089e-01   9.207920792079e-01   9.306930693069e-01   9.405940594059e-01   9.504950495050e-01   9.603960396040e-01   9.702970297030e-01   9.801980198020e-01   9.900990099010e-01
Z_COORDINATES 1 float
  0.000000000000e+00
POINT_DATA 10201
VECTORS E_field float
  0.000000000000e+00 0.000000000000e+00 0.000000000000e+00
  0.000000000000e+00 0.000000000000e+00 0.000000000000e+00
  0.000000000000e+00 0.000000000000e+00 0.000000000000e+00
  0.000000000000e+00 0.000000000000e+00 0.000000000000e+00
  0.000000000000e+00 0.000000000000e+00 0.000000000000e+00
  0.000000000000e+00 0.000000000000e+00 0.000000000000e+00
  0.000000000000e+00 0.000000000000e+00 0.000000000000e+00
  0.000000000000e+00 0.000000000000e+00 0.000000000000e+00
  0.000000000000e+00 0.000000000000e+00 0.000000000000e+00
  0.000000000000e+00 0.000000000000e+00 0.000000000000e+00
  0.000000000000e+00 0.000000000000e+00 0.000000000000e+00
  0.000000000000e+00 0.000000000000e+00 0.000000000000e+00
  0.000000000000e+00 0.000000000000e+00 0.000000000000e+00
  0.000000000000e+00 0.000000000000e+00 0.000000000000e+00
  0.000000000000e+00 0.000000000000e+00 0.000000000000e+00
  0.000000000000e+00 0.000000000000e+00 0.000000000000e+00
  0.000000000000e+00 0.000000000000e+00 0.000000000000e+00
  0.000000000000e+00 0.000000000000e+00 0.000000000000e+00
  0.000000000000e+00 0.000000000000e+00 0.000000000000e+00
  0.000000000000e+00 0.000000000000e+00 0.000000000000e+00
  0.000000000000e+00 0.000000000000e+00 0.000000000000e+00
  0.000000000000e+00 0.000000000000e+00 0.000000000000e+00
  0.000000000000e+00 0.000000000000e+00 0.000000000000e+00
  0.000000000000e+00 0.000000000000e+00 0.000000000000e+00
  0.000000000000e+00 0.000000000000e+00 0.000000000000e+00
  0.000000000000e+00 0.000000000000e+00 0.000000000000e+00
  0.000000000000e+00 0.000000000000e+00 0.000000000000e+00
  0.000000000000e+00 0.000000000000e+00 0.000000000000e+00
  0.000000000000e+00 0.000000000000e+00 0.000000000000e+00
  0.000000000000e+00 0.000000000000e+00 0.000000000000e+00
  0.000000000000e+00 0.000000000000e+00 0.000000000000e+00
  0.000000000000e+00 0.000000000000e+00 0.000000000000e+00
  0.000000000000e+00 0.000000000000e+00 0.000000000000e+00
  0.000000000000e+00 0.000000000000e+00 0.000000000000e+00
  0.000000000000e+00 0.000000000000e+00 0.000000000000e+00
  0.000000000000e+00 0.000000000000e+00 0.000000000000e+00
  0.000000000000e+00 0.000000000000e+00 0.000000000000e+00
  0.000000000000e+00 0.000000000000e+00 0.000000000000e+00
  0.000000000000e+00 0.000000000000e+00 0.000000000000e+00
  0.000000000000e+00 0.000000000000e+00 0.000000000000e+00
  0.000000000000e+00 0.000000000000e+00 0.000000000000e+00
  0.000000000000e+00 0.000000000000e+00 0.000000000000e+00
  0.000000000000e+00 0.000000000000e+00 0.000000000000e+00
  0.000000000000e+00 0.000000000000e+00 0.000000000000e+00
  0.000000000000e+00 0.000000000000e+00 0.000000000000e+00
  0.000000000000e+00 0.000000000000e+00 0.000000000000e+00
  0.000000000000e+00 0.000000000000e+00 0.000000000000e+00
  0.000000000000e+00 0.000000000000e+00 0.000000000000e+00
  0.000000000000e+00 0.000000000000e+00 0.000000000000e+00
  0.000000000000e+00 0.000000000000e+00 0.000000000000e+00
  0.000000000000e+00 0.000000000000e+00 0.000000000000e+00
  0.000000000000e+00 0.000000000000e+00 0.000000000000e+00
  0.000000000000e+00 0.000000000000e+00 0.000000000000e+00
  0.000000000000e+00 0.000000000000e+00 0.000000000000e+00
  0.000000000000e+00 0.000000000000e+00 0.000000000000e+00
  0.000000000000e+00 0.000000000000e+00 0.000000000000e+00
  0.000000000000e+00 0.000000000000e+00 0.000000000000e+00
  0.000000000000e+00 0.000000000000e+00 0.000000000000e+00
  0.000000000000e+00 0.000000000000e+00 0.000000000000e+00
  0.000000000000e+00 0.000000000000e+00 0.000000000000e+00
  0.000000000000e+00 0.000000000000e+00 0.000000000000e+00
  0.000000000000e+00 0.000000000000e+00 0.000000000000e+00
  0.000000000000e+00 0.000000000000e+00 0.000000000000e+00
  0.000000000000e+00 0.000000000000e+00 0.000000000000e+00
  0.000000000000e+00 0.000000000000e+00 0.000000000000e+00
  0.000000000000e+00 0.000000000000e+00 0.000000000000e+00
  0.000000000000e+00 0.000000000000e+00 0.000000000000e+00
  0.000000000000e+00 0.000000000000e+00 0.000000000000e+00
  0.000000000000e+00 0.000000000000e+00 0.000000000000e+00
  0.000000000000e+00 0.000000000000e+00 0.000000000000e+00
  0.000000000000e+00 0.000000000000e+00 0.000000000000e+00
  0.000000000000e+00 0.000000000000e+00 0.000000000000e+00
  0.000000000000e+00 0.000000000000e+00 0.000000000000e+00
  0.000000000000e+00 0.000000000000e+00 0.000000000000e+00
  0.000000000000e+00 0.000000000000e+00 0.000000000000e+00
  0.000000000000e+00 0.000000000000e+00 0.000000000000e+00
  0.000000000000e+00 0.000000000000e+00 0.000000000000e+00
  0.000000000000e+00 0.000000000000e+00 0.000000000000e+00
  0.000000000000e+00 0.000000000000e+00 0.000000000000e+00
  0.000000000000e+00 0.000000000000e+00 0.000000000000e+00
  0.000000000000e+00 0.000000000000e+00 0.000000000000e+00
  0.000000000000e+00 0.000000000000e+00 0.000000000000e+00
  0.000000000000e+00 0.000000000000e+00 0.000000000000e+00
  0.000000000000e+00 0.000000000000e+00 0.000000000000e+00
  0.000000000000e+00 0.000000000000e+00 0.000000000000e+00
  0.000000000000e+00 0.000000000000e+00 0.000000000000e+00
  0.000000000000e+00 0.000000000000e+00 0.000000000000e+00
  0.000000000000e+00 0.000000000000e+00 0.000000000000e+00
  0.000000000000e+00 0.000000000000e+00 0.000000000000e+00
  0.000000000000e+00 0.000000000000e+00 0.000000000000e+00
  0.000000000000e+00 0.000000000000e+00 0.000000000000e+00
  0.000000000000e+00 0.000000000000e+00 0.000000000000e+00
  0.000000000000e+00 0.000000000000e+00 0.000000000000e+00
  0.000000000000e+00 0.000000000000e+00 0.000000000000e+00
  0.000000000000e+00 0.000000000000e+00 0.000000000000e+00
  0.000000000000e+00 0.000000000000e+00 0.000000000000e+00
  0.000000000000e+00 0.000000000000e+00 0.000000000000e+00
  0.000000000000e+00 0.000000000000e+00 0.000000000000e+00
  0.000000000000e+00 0.000000000000e+00 0.000000000000e+00
  0.000000000000e+00 0.000000000000e+00 0.000000000000e+00
  0.000000000000e+00 0.000000000000e+00 0.000000000000e+00
  0.000000000000e+00 0.000000000000e+00 0.000000000000e+00
  2.416424786058e-02 -2.416424786058e-02 0.000000000000e+00
  2.219502509958e-02 -6.531039578681e-02 0.000000000000e+00
  1.850040984162e-02 -8.745973023660e-02 0.000000000000e+00
  1.350948420917e-02 -8.533544488498e-02 0.000000000000e+00
  7.741494299492e-03 -6.142163591661e-02 0.000000000000e+00
  1.707297527515e-03 -2.416147901545e-02 0.000000000000e+00
  -4.164278655944e-03 1.571969154155e-02 0.000000000000e+00
  -9.562698658580e-03 4.894700703252e-02 0.000000000000e+00
  -1.429918342118e-02 7.000583777267e-02 0.000000000000e+00
  -1.829110570506e-02 7.755100860543e-02 0.000000000000e+00
  -2.153983662311e-02 7.341457630054e-02 0.000000000000e+00
  -2.410763784886e-02 6.112829634712e-02 0.000000000000e+00
  -2.609365489711e-02 4.466997997717e-02 0.000000000000e+00
  -2.760872083987e-02 2.766297750364e-02 0.000000000000e+00
  -2.875178182796e-02 1.292198486975e-02 0.000000000000e+00
  -2.959274874249e-02 2.202813360390e-03 0.000000000000e+00
  -3.016485808683e-02 -3.866862659806e-03 0.000000000000e+00
  -3.046574736487e-02 -5.646290615281e-03 0.000000000000e+00
  -3.046399077497e-02 -4.177074187854e-03 0.000000000000e+00
  -3.010853651439e-02 -8.524657990075e-04 0.000000000000e+00
  -2.934080242346e-02 2.819143904425e-03 0.000000000000e+00
  -2.811040986015e-02 5.344325914522e-03 0.000000000000e+00
  -2.639454485612e-02 5.344307402714e-03 0.000000000000e+00
  -2.421858629725e-02 1.701129293171e-03 0.000000000000e+00
  -2.167315237217e-02 -6.227558544478e-03 0.000000000000e+00
  -1.892075390510e-02 -1.835333895588e-02 0.000000000000e+00
  -1.618467262584e-02 -3.362237734836e-02 0.000000000000e+00
  -1.371510660054e-02 -4.989066983950e-02 0.000000000000e+00
  -1.173410317413e-02 -6.400997477709e-02 0.000000000000e+00
  -1.037003750314e-02 -7.218906804926e-02 0.000000000000e+00
  -9.600730456441e-03 -7.061738974235e-02 0.000000000000e+00
  -9.227548668775e-03 -5.626283756975e-02 0.000000000000e+00
  -8.898056830324e-03 -2.770341842556e-02 0.000000000000e+00
  -8.181233126595e-03 1.419767389704e-02 0.000000000000e+00
  -6.679481177557e-03 6.600911047346e-02 0.000000000000e+00
  -4.142919094258e-03 1.220389343310e-01 0.000000000000e+00
  -5.442706856643e-04 1.752376315524e-01 0.000000000000e+00
  3.915120286425e-03 2.184209490472e-01 0.000000000000e+00
  8.868762839562e-03 2.453849545483e-01 0.000000000000e+00
  1.388778847618e-02 2.516363421514e-01 0.000000000000e+00
  1.857852730622e-02 2.348287134160e-01 0.000000000000e+00
  2.264138675574e-02 1.952505937145e-01 0.000000000000e+00
  2.588553787545e-02 1.365568300497e-01 0.000000000000e+00
  2.821911549803e-02 6.641379355312e-02 0.000000000000e+00
  2.964031614473e-02 -3.743616180474e-03 0.000000000000e+00
  3.023959098221e-02 -6.058258907573e-02 0.000000000000e+00
  3.020131442976e-02 -9.236552860305e-02 0.000000000000e+00
  2.978312476462e-02 -9.300400531914e-02 0.000000000000e+00
  2.926108108137e-02 -6.491902489565e-02 0.000000000000e+00
  2.885195313272e-02 -1.915340797466e-02 0.000000000000e+00
  2.864375666604e-02 2.771136877914e-02 0.000000000000e+00
  2.856763769051e-02 5.881021387135e-02 0.000000000000e+00
  2.842569733307e-02 6.234886899345e-02 0.000000000000e+00
  2.796099973930e-02 3.493521707607e-02 0.000000000000e+00
  2.693522782019e-02 -1.825477630494e-02 0.000000000000e+00
  2.517953714814e-02 -8.614234140462e-02 0.000000000000e+00
  2.260533650213e-02 -1.557311108215e-01 0.000000000000e+00
  1.918990974598e-02 -2.156172208065e-01 0.000000000000e+00
  1.496710937782e-02 -2.578859132045e-01 0.000000000000e+00
  1.004402660453e-02 -2.783469949525e-01 0.000000000000e+00
  4.636550911524e-03 -2.758785971993e-01 0.000000000000e+00
  -9.091201301680e-04 -2.517588258235e-01 0.000000000000e+00
  -6.144843520647e-03 -2.093701987782e-01 0.000000000000e+00
  -1.060963886212e-02 -1.540586393274e-01 0.000000000000e+00
  -1.395313637589e-02 -9.269164776356e-02 0.000000000000e+00
  -1.604212150364e-02 -3.269274564458e-02 0.000000000000e+00
  -1.700265993647e-02 1.924701726116e-02 0.000000000000e+00
  -1.717943219755e-02 5.833103091343e-02 0.000000000000e+00
  -1.703017020439e-02 8.231437998943e-02 0.000000000000e+00
  -1.699694495153e-02 9.153638481289e-02 0.000000000000e+00
  -1.739863141283e-02 8.843541210139e-02 0.000000000000e+00
  -1.837394085702e-02 7.675051225032e-02 0.000000000000e+00
  -1.988226220235e-02 6.062444887808e-02 0.000000000000e+00
  -2.174999331352e-02 4.380537360255e-02 0.000000000000e+00
  -2.373900853277e-02 2.909983900515e-02 0.000000000000e+00
  -2.561311024572e-02 1.814092699148e-02 0.000000000000e+00
  -2.718566327572e-02 1.143172828912e-02 0.000000000000e+00
  -2.834231172027e-02 8.561998338738e-03 0.000000000000e+00
  -2.904167334679e-02 8.491009931366e-03 0.000000000000e+00
  -2.930154476123e-02 9.814481247944e-03 0.000000000000e+00
  -2.917874033968e-02 1.096986977026e-02 0.000000000000e+00
  -2.874878449204e-02 1.039035518422e-02 0.000000000000e+00
  -2.808850982007e-02 6.678122108801e-03 0.000000000000e+00
  -2.726129963142e-02 -1.128249031545e-03 0.000000000000e+00
  -2.630291823551e-02 -1.320439064050e-02 0.000000000000e+00
  -2.520694018043e-02 -2.863448618080e-02 0.000000000000e+00
  -2.391203001373e-02 -4.530032652734e-02 0.000000000000e+00
  -2.229607241367e-02 -6.002630947170e-02 0.000000000000e+00
  -2.018222960736e-02 -6.894929083889e-02 0.000000000000e+00
  -1.735986554639e-02 -6.810817214394e-02 0.000000000000e+00
  -1.362110691038e-02 -5.434710113438e-02 0.000000000000e+00
  -8.812423989935e-03 -2.659162124369e-02 0.000000000000e+00
  -2.897916291417e-03 1.275526802264e-02 0.000000000000e+00
  3.975703990898e-03 5.699667338408e-02 0.000000000000e+00
  1.143216049849e-02 9.578386428080e-02 0.000000000000e+00
  1.886289560105e-02 1.176644954537e-01 0.000000000000e+00
  2.548989841662e-02 1.140053785427e-01 0.000000000000e+00
  3.049581943514e-02 8.276326783780e-02 0.000000000000e+00
  3.319488737681e-02 3.025163162823e-02 0.000000000000e+00
  0.000000000000e+00 0.000000000000e+00 0.000000000000e+00
  0.000000000000e+00 0.000000000000e+00 0.000000000000e+00
  6.531039578681e-02 -2.219502509958e-02 0.000000000000e+00
  5.965460177949e-02 -5.965460177949e-02 0.000000000000e+00
  4.904388359633e-02 -7.881019080281e-02 0.000000000000e+00
  3.471191715729e-02 -7.466209224729e-02 0.000000000000e+00
  1.815251374472e-02 -4.976759523206e-02 0.000000000000e+00
  8.372572665284e-04 -1.246606644985e-02 0.000000000000e+00
  -1.599527552745e-02 2.672838795339e-02 0.000000000000e+00
  -3.144338856157e-02 5.878484365744e-02 0.000000000000e+00
  -4.495293332747e-02 7.841403067625e-02 0.000000000000e+00
  -5.627441553586e-02 8.445622019412e-02 0.000000000000e+00
  -6.540211607574e-02 7.888579616978e-02 0.000000000000e+00
  -7.251037059918e-02 6.533313222707e-02 0.000000000000e+00
  -7.788615522693e-02 4.782694577322e-02 0.000000000000e+00
  -8.185659679597e-02 2.999151921938e-02 0.000000000000e+00
  -8.471966609629e-02 1.459957344241e-02 0.000000000000e+00
  -8.669257242242e-02 3.339098028395e-03 0.000000000000e+00
  -8.788750846970e-02 -3.236101936200e-03 0.000000000000e+00
  -8.831297740956e-02 -5.550693120979e-03 0.000000000000e+00
  -8.789155239623e-02 -4.695853285392e-03 0.000000000000e+00
  -8.648675764034e-02 -2.093935717935e-03 0.000000000000e+00
  -8.393834535667e-02 7.444674487417e-04 0.000000000000e+00
  -8.010860881444e-02 2.358873264679e-03 0.000000000000e+00
  -7.493925558220e-02 1.444541816287e-03 0.000000000000e+00
  -6.851138388801e-02 -3.002935373470e-03 0.000000000000e+00
  -6.109397756069e-02 -1.148633413023e-02 0.000000000000e+00
  -5.316107285045e-02 -2.377986654745e-02 0.000000000000e+00
  -4.535676323588e-02 -3.873624065062e-02 0.000000000000e+00
  -3.839485920561e-02 -5.420827659281e-02 0.000000000000e+00
  -3.289899918862e-02 -6.716923146716e-02 0.000000000000e+00
  -2.921526474310e-02 -7.407761147566e-02 0.000000000000e+00
  -2.725229927725e-02 -7.146111882840e-02 0.000000000000e+00
  -2.641193177855e-02 -5.663265776986e-02 0.000000000000e+00
  -2.565868015096e-02 -2.841634169106e-02 0.000000000000e+00
  -2.373772200525e-02 1.227281531396e-02 0.000000000000e+00
  -1.949544301144e-02 6.218993811534e-02 0.000000000000e+00
  -1.220465990623e-02 1.160307615036e-01 0.000000000000e+00
  -1.777354048478e-03 1.672198501186e-01 0.000000000000e+00
  1.121737470629e-02 2.089846107625e-01 0.000000000000e+00
  2.573122592207e-02 2.353537990771e-01 0.000000000000e+00
  4.052555486837e-02 2.418541430591e-01 0.000000000000e+00
  5.444689062837e-02 2.259988379458e-01 0.000000000000e+00
  6.659625173158e-02 1.878682486693e-01 0.000000000000e+00
  7.637771751996e-02 1.309135582347e-01 0.000000000000e+00
  8.348110651872e-02 6.262009880501e-02 0.000000000000e+00
  8.786771456838e-02 -5.757730061741e-03 0.000000000000e+00
  8.978415114970e-02 -6.108418654087e-02 0.000000000000e+00
  8.976824436347e-02 -9.180974772630e-02 0.000000000000e+00
  8.858426238551e-02 -9.195761448530e-02 0.000000000000e+00
  8.705557015042e-02 -6.391467975539e-02 0.000000000000e+00
  8.583067504645e-02 -1.852373002400e-02 0.000000000000e+00
  8.517547666070e-02 2.794508569758e-02 0.000000000000e+00
  8.488915525314e-02 5.893893732917e-02 0.000000000000e+00
  8.438626431784e-02 6.286497679880e-02 0.000000000000e+00
  8.290452318421e-02 3.636554794909e-02 0.000000000000e+00
  7.973703728942e-02 -1.549184942742e-02 0.000000000000e+00
  7.438747155466e-02 -8.180001194677e-02 0.000000000000e+00
  6.660753060786e-02 -1.497192987598e-01 0.000000000000e+00
  5.635744684421e-02 -2.079635224181e-01 0.000000000000e+00
  4.377520745319e-02 -2.487345718960e-01 0.000000000000e+00
  2.921532606056e-02 -2.680153721475e-01 0.000000000000e+00
  1.333972632377e-02 -2.649271446162e-01 0.000000000000e+00
  -2.829695853708e-03 -2.409951852190e-01 0.000000000000e+00
  -1.799626471845e-02 -1.997315471501e-01 0.000000000000e+00
  -3.084185323925e-02 -1.463869071087e-01 0.000000000000e+00
  -4.037475458048e-02 -8.748698113741e-02 0.000000000000e+00
  -4.622891114026e-02 -2.995427058949e-02 0.000000000000e+00
  -4.878142697065e-02 2.002159646555e-02 0.000000000000e+00
  -4.903656387462e-02 5.798836087200e-02 0.000000000000e+00
  -4.832588687977e-02 8.179711104172e-02 0.000000000000e+00
  -4.794140026403e-02 9.163594189142e-02 0.000000000000e+00
  -4.882654573494e-02 8.962268695477e-02 0.000000000000e+00
  -5.140902878676e-02 7.912102989282e-02 0.000000000000e+00
  -5.559784751551e-02 6.395107130961e-02 0.000000000000e+00
  -6.091161127229e-02 4.766024603895e-02 0.000000000000e+00
  -6.667299969525e-02 3.299537021095e-02 0.000000000000e+00
  -7.220050485774e-02 2.164700266111e-02 0.000000000000e+00
  -7.694834293693e-02 1.424604372868e-02 0.000000000000e+00
  -8.057547677499e-02 1.053146518179e-02 0.000000000000e+00
  -8.295064329611e-02 9.596071235957e-03 0.000000000000e+00
  -8.411421635488e-02 1.013286441655e-02 0.000000000000e+00
  -8.422013909084e-02 1.063460491607e-02 0.000000000000e+00
  -8.347620009871e-02 9.551725198634e-03 0.000000000000e+00
  -8.209204305428e-02 5.472320377990e-03 0.000000000000e+00
  -8.023480657700e-02 -2.606893966664e-03 0.000000000000e+00
  -7.798717011695e-02 -1.493176356134e-02 0.000000000000e+00
  -7.530575307350e-02 -3.068450835848e-02 0.000000000000e+00
  -7.198708469701e-02 -4.786388289284e-02 0.000000000000e+00
  -6.765573672119e-02 -6.341005868207e-02 0.000000000000e+00
  -6.178833670938e-02 -7.354678444665e-02 0.000000000000e+00
  -5.377979030013e-02 -7.434158900640e-02 0.000000000000e+00
  -4.305118484789e-02 -6.258104836017e-02 0.000000000000e+00
  -2.919548790135e-02 -3.702205388488e-02 0.000000000000e+00
  -1.215126098571e-02 2.269660496778e-04 0.000000000000e+00
  7.622256395021e-03 4.287783769400e-02 0.000000000000e+00
  2.902149300088e-02 8.104700685743e-02 0.000000000000e+00
  5.029740164292e-02 1.036947091324e-01 0.000000000000e+00
  6.923526053728e-02 1.024103031540e-01 0.000000000000e+00
  8.352030185344e-02 7.506738089181e-02 0.000000000000e+00
  9.121585874069e-02 2.755289374530e-02 0.000000000000e+00
  0.000000000000e+00 0.000000000000e+00 0.000000000000e+00
  0.000000000000e+00 0.000000000000e+00 0.000000000000e+00
  8.745973023660e-02 -1.850040984162e-02 0.000000000000e+00
  7.881019080281e-02 -4.904388359633e-02 0.000000000000e+00
  6.258478008792e-02 -6.258478008792e-02 0.000000000000e+00
  4.067341171036e-02 -5.464416814558e-02 0.000000000000e+00
  1.536547302369e-02 -2.791817723452e-02 0.000000000000e+00
  -1.108008929477e-02 9.445334349261e-03 0.000000000000e+00
  -3.675370916021e-02 4.732313981370e-02 0.000000000000e+00
  -6.025102541532e-02 7.713552108635e-02 0.000000000000e+00
  -8.068925096000e-02 9.401112355792e-02 0.000000000000e+00
  -9.764645889101e-02 9.713781745184e-02 0.000000000000e+00
  -1.110774715369e-01 8.876291209779e-02 0.000000000000e+00
  -1.212263391181e-01 7.271313840371e-02 0.000000000000e+00
  -1.285301363350e-01 5.312652144126e-02 0.000000000000e+00
  -1.335094191541e-01 3.364166793948e-02 0.000000000000e+00
  -1.366580816166e-01 1.696115648516e-02 0.000000000000e+00
  -1.383570855313e-01 4.649425226489e-03 0.000000000000e+00
  -1.388296471989e-01 -2.878931419447e-03 0.000000000000e+00
  -1.381371878066e-01 -6.174854090197e-03 0.000000000000e+00
  -1.362029226430e-01 -6.427382493047e-03 0.000000000000e+00
  -1.328520724995e-01 -5.118051409694e-03 0.000000000000e+00
  -1.278674025325e-01 -3.764499110195e-03 0.000000000000e+00
  -1.210634401987e-01 -3.765859052420e-03 0.000000000000e+00
  -1.123771519214e-01 -6.286367376089e-03 0.000000000000e+00
  -1.019615284936e-01 -1.211552130316e-02 0.000000000000e+00
  -9.025778180337e-02 -2.149490121804e-02 0.000000000000e+00
  -7.801506750589e-02 -3.394691846736e-02 0.000000000000e+00
  -6.622722831655e-02 -4.816133753460e-02 0.000000000000e+00
  -5.596987425511e-02 -6.200243780049e-02 0.000000000000e+00
  -4.815116653496e-02 -7.268963799650e-02 0.000000000000e+00
  -4.322875331116e-02 -7.716335261536e-02 0.000000000000e+00
  -4.097710236554e-02 -7.258999409953e-02 0.000000000000e+00
  -4.039751443559e-02 -5.692373792598e-02 0.000000000000e+00
  -3.983800545820e-02 -2.943802213704e-02 0.000000000000e+00
  -3.733170579218e-02 8.867237953868e-03 0.000000000000e+00
  -3.108202358874e-02 5.510355428882e-02 0.000000000000e+00
  -1.994921820968e-02 1.046935568648e-01 0.000000000000e+00
  -3.767574330390e-03 1.519481050527e-01 0.000000000000e+00
  1.662498685841e-02 1.908690659375e-01 0.000000000000e+00
  3.964448776138e-02 2.159359918651e-01 0.000000000000e+00
  6.338158353618e-02 2.227405256709e-01 0.000000000000e+00
  8.600665800944e-02 2.085660452708e-01 0.000000000000e+00
  1.060282558383e-01 1.731300826401e-01 0.000000000000e+00
  1.223868569771e-01 1.195116576272e-01 0.000000000000e+00
  1.344625839405e-01 5.484288380183e-02 0.000000000000e+00
  1.420897916486e-01 -9.994330414287e-03 0.000000000000e+00
  1.456030944378e-01 -6.227732512611e-02 0.000000000000e+00
  1.458508421501e-01 -9.084844963248e-02 0.000000000000e+00
  1.440792493913e-01 -8.996333744075e-02 0.000000000000e+00
  1.416451472918e-01 -6.194616213374e-02 0.000000000000e+00
  1.396234440369e-01 -1.724564905845e-02 0.000000000000e+00
  1.384625474677e-01 2.848309978773e-02 0.000000000000e+00
  1.378446113587e-01 5.930518071783e-02 0.000000000000e+00
  1.368180458029e-01 6.402818972900e-02 0.000000000000e+00
  1.341372441142e-01 3.936487755315e-02 0.000000000000e+00
  1.286477859746e-01 -9.834235371286e-03 0.000000000000e+00
  1.195534132675e-01 -7.301368798531e-02 0.000000000000e+00
  1.064941178034e-01 -1.376663867483e-01 0.000000000000e+00
  8.949065743528e-02 -1.927628907172e-01 0.000000000000e+00
  6.888345339232e-02 -2.307457605395e-01 0.000000000000e+00
  4.536189408613e-02 -2.479227431243e-01 0.000000000000e+00
  2.006719647824e-02 -2.438494765510e-01 0.000000000000e+00
  -5.356048576488e-03 -2.204801862475e-01 0.000000000000e+00
  -2.890093283559e-02 -1.815350931397e-01 0.000000000000e+00
  -4.857603387583e-02 -1.320626716562e-01 0.000000000000e+00
  -6.291491291667e-02 -7.793943627249e-02 0.000000000000e+00
  -7.141129041505e-02 -2.515128143686e-02 0.000000000000e+00
  -7.468738960005e-02 2.104722230396e-02 0.000000000000e+00
  -7.431941941968e-02 5.684990174327e-02 0.000000000000e+00
  -7.239065143842e-02 8.029612518676e-02 0.000000000000e+00
  -7.094078609191e-02 9.130257578020e-02 0.000000000000e+00
  -7.149439150925e-02 9.139480395229e-02 0.000000000000e+00
  -7.479493534933e-02 8.323193978628e-02 0.000000000000e+00
  -8.078333591115e-02 7.001738070631e-02 0.000000000000e+00
  -8.877856215477e-02 5.490292664248e-02 0.000000000000e+00
  -9.776707659411e-02 4.050259246965e-02 0.000000000000e+00
  -1.066978749779e-01 2.859808394869e-02 0.000000000000e+00
  -1.147056314712e-01 2.005055701357e-02 0.000000000000e+00
  -1.212280397167e-01 1.487649398046e-02 0.000000000000e+00
  -1.260232783068e-01 1.242144754852e-02 0.000000000000e+00
  -1.291166881469e-01 1.156447100280e-02 0.000000000000e+00
  -1.307117108942e-01 1.090394381314e-02 0.000000000000e+00
  -1.310942964330e-01 8.921032848216e-03 0.000000000000e+00
  -1.305472281240e-01 4.171787374968e-03 0.000000000000e+00
  -1.292764692832e-01 -4.434356281750e-03 0.000000000000e+00
  -1.273438576110e-01 -1.728454937845e-02 0.000000000000e+00
  -1.246054299516e-01 -3.375156724430e-02 0.000000000000e+00
  -1.206683980298e-01 -5.205252430523e-02 0.000000000000e+00
  -1.148891899591e-01 -6.933197331624e-02 0.000000000000e+00
  -1.064302175268e-01 -8.195124225657e-02 0.000000000000e+00
  -9.437820519194e-02 -8.599768994061e-02 0.000000000000e+00
  -7.791515368448e-02 -7.811660438567e-02 0.000000000000e+00
  -5.653047276478e-02 -5.672687572563e-02 0.000000000000e+00
  -3.025982706898e-02 -2.338308472102e-02 0.000000000000e+00
  8.264489772735e-05 1.637189911725e-02 0.000000000000e+00
  3.274753641814e-02 5.348881730791e-02 0.000000000000e+00
  6.506562782471e-02 7.765889863334e-02 0.000000000000e+00
  9.371796818248e-02 8.085591440093e-02 0.000000000000e+00
  1.152689377995e-01 6.078575871172e-02 0.000000000000e+00
  1.268589314507e-01 2.254896538693e-02 0.000000000000e+00
  0.000000000000e+00 0.000000000000e+00 0.000000000000e+00
  0.000000000000e+00 0.000000000000e+00 0.000000000000e+00
  8.533544488498e-02 -1.350948420917e-02 0.000000000000e+00
  7.466209224729e-02 -3.471191715729e-02 0.000000000000e+00
  5.464416814558e-02 -4.067341171036e-02 0.000000000000e+00
  2.761781917541e-02 -2.761781917541e-02 0.000000000000e+00
  -3.590907072105e-03 1.572138729501e-03 0.000000000000e+00
  -3.619403082225e-02 3.900370445385e-02 0.000000000000e+00
  -6.782557579313e-02 7.506993454544e-02 0.000000000000e+00
  -9.672158272698e-02 1.017820495436e-01 0.000000000000e+00
  -1.217335069944e-01 1.148147449128e-01 0.000000000000e+00
  -1.422585387903e-01 1.138164358239e-01 0.000000000000e+00
  -1.581534729819e-01 1.014102405632e-01 0.000000000000e+00
  -1.696502159590e-01 8.171142049658e-02 0.000000000000e+00
  -1.772566286552e-01 5.903844926154e-02 0.000000000000e+00
  -1.816295322343e-01 3.708192651733e-02 0.000000000000e+00
  -1.834341432027e-01 1.847417133829e-02 0.000000000000e+00
  -1.832242149909e-01 4.625486076259e-03 0.000000000000e+00
  -1.813708248187e-01 -4.235820773897e-03 0.000000000000e+00
  -1.780439888068e-01 -8.837260139912e-03 0.000000000000e+00
  -1.732334612129e-01 -1.050976920078e-02 0.000000000000e+00
  -1.667957416239e-01 -1.082423443449e-02 0.000000000000e+00
  -1.585251504184e-01 -1.131357725799e-02 0.000000000000e+00