# vtk DataFile Version 3.0
Karman Output
ASCII
DATASET RECTILINEAR_GRID
DIMENSIONS 101 101 1
X_COORDINATES 101 float
   0.000000000000e+00   9.900990099010e-03   1.980198019802e-02   2.970297029703e-02   3.960396039604e-02   4.950495049505e-02   5.940594059406e-02   6.930693069307e-02   7.920792079208e-02   8.910891089109e-02   9.900990099010e-02   1.089108910891e-01   1.188118811881e-01   1.287128712871e-01   1.386138613861e-01   1.485148514851e-01   1.584158415842e-01   1.683168316832e-01   1.782178217822e-01   1.881188118812e-01   1.980198019802e-01   2.079207920792e-01   2.178217821782e-01   2.277227722772e-01   2.376237623762e-01   2.475247524752e-01   2.574257425743e-01   2.673267326733e-01   2.772277227723e-01   2.871287128713e-01   2.970297029703e-01   3.069306930693e-01   3.168316831683e-01   3.267326732673e-01   3.366336633663e-01   3.465346534653e-01   3.564356435644e-01   3.663366336634e-01   3.762376237624e-01   3.861386138614e-01   3.960396039604e-01   4.059405940594e-01   4.158415841584e-01   4.257425742574e-01   4.356435643564e-01   4.455445544554e-01   4.554455445545e-01   4.653465346535e-01   4.752475247525e-01   4.851485148515e-01   4.950495049505e-01   5.049504950495e-01   5.148514851485e-01   5.247524752475e-01   5.346534653465e-01   5.445544554455e-01   5.544554455446e-01   5.643564356436e-01   5.742574257426e-01   5.841584158416e-01   5.940594059406e-01   6.039603960396e-01   6.138613861386e-01   6.237623762376e-01   6.336633663366e-01   6.435643564356e-01   6.534653465347e-01   6.633663366337e-01   6.732673267327e-01   6.831683168317e-01   6.930693069307e-01   7.029702970297e-01   7.128712871287e-01   7.227722772277e-01   7.326732673267e-01   7.425742574257e-01   7.524752475248e-01   7.623762376238e-01   7.722772277228e-01   7.821782178218e-01   7.920792079208e-01   8.019801980198e-01   8.118811881188e-01   8.217821782178e-01   8.316831683168e-01   8.415841584158e-01   8.514851485149e-01   8.613861386139e-01   8.712871287129e-01   8.811881188119e-01   8.910891089109e-01   9.009900990099e-01   9.108910891089e-01   9.207920792079e-01   9.306930693069e-01   9.405940594059e-01   9.504950495050e-01   9.603960396040e-01   9.702970297030e-01   9.801980198020e-01   9.900990099010e-01
Y_COORDINATES 101 float
   0.000000000000e+00   9.900990099010e-03   1.980198019802e-02   2.970297029703e-02   3.960396039604e-02   4.950495049505e-02   5.940594059406e-02   6.930693069307e-02   7.920792079208e-02   8.910891089109e-02   9.900990099010e-02   1.089108910891e-01   1.188118811881e-01   1.287128712871e-01   1.386138613861e-01   1.485148514851e-01   1.584158415842e-01   1.683168316832e-01   1.782178217822e-01   1.881188118812e-01   1.980198019802e-01   2.079207920792e-01   2.178217821782e-01   2.277227722772e-01   2.376237623762e-01   2.475247524752e-01   2.574257425743e-01   2.673267326733e-01   2.772277227723e-01   2.871287128713e-01   2.970297029703e-01   3.069306930693e-01   3.168316831683e-01   3.267326732673e-01   3.366336633663e-01   3.465346534653e-01   3.564356435644e-01   3.663366336634e-01   3.762376237624e-01   3.861386138614e-01   3.960396039604e-01   4.059405940594e-01   4.158415841584e-01   4.257425742574e-01   4.356435643564e-01   4.455445544554e-01   4.554455445545e-01   4.653465346535e-01   4.752475247525e-01   4.851485148515e-01   4.950495049505e-01   5.049504950495e-01   5.148514851485e-01   5.247524752475e-01   5.346534653465e-01   5.445544554455e-01   5.544554455446e-01   5.643564356436e-01   5.742574257426e-01   5.841584158416e-01   5.940594059406e-01   6.039603960396e-01   6.138613861386e-01   6.237623762376e-01   6.336633663366e-01   6.435643564356e-01   6.534653465347e-01   6.633663366337e-01   6.732673267327e-01   6.831683168317e-01   6.930693069307e-01   7.029702970297e-01   7.128712871287e-01   7.227722772277e-01   7.326732673267e-01   7.425742574257e-01   7.524752475248e-01   7.623762376238e-01   7.722772277228e-01   7.821782178218e-01   7.920792079208e-01   8.019801980198e-01   8.118811881188e-01   8.217821782178e-01   8.316831683168e-01   8.415841584158e-01   8.514851485149e-01   8.613861386139e-01   8.712871287129e-01   8.811881188119e-01   8.910891089109e-01   9.009900990099e-01   9.108910891089e-01   9.207920792079e-01   9.306930693069e-01   9.405940594059e-01   9.504950495050e-01   9.603960396040e-01   9.702970297030e-01   9.801980198020e-01   9.900990099010e-01
Z_COORDINATES 1 float
  0.000000000000e+00
POINT_DATA 10201
VECTORS E_field float
  0.000000000000e+00 0.000000000000e+00 0.000000000000e+00
  0.000000000000e+00 0.000000000000e+00 0.000000000000e+00
  0.000000000000e+00 0.000000000000e+00 0.000000000000e+00
  0.000000000000e+00 0.000000000000e+00 0.000000000000e+00
  0.000000000000e+00 0.000000000000e+00 0.000000000000e+00
  0.000000000000e+00 0.000000000000e+00 0.000000000000e+00
  0.000000000000e+00 0.000000000000e+00 0.000000000000e+00
  0.000000000000e+00 0.000000000000e+00 0.000000000000e+00
  0.000000000000e+00 0.000000000000e+00 0.000000000000e+00
  0.000000000000e+00 0.000000000000e+00 0.000000000000e+00
  0.000000000000e+00 0.000000000000e+00 0.000000000000e+00
  0.000000000000e+00 0.000000000000e+00 0.000000000000e+00
  0.000000000000e+00 0.000000000000e+00 0.000000000000e+00
  0.000000000000e+00 0.000000000000e+00 0.000000000000e+00
  0.000000000000e+00 0.000000000000e+00 0.000000000000e+00
  0.000000000000e+00 0.000000000000e+00 0.000000000000e+00
  0.000000000000e+00 0.000000000000e+00 0.000000000000e+00
  0.000000000000e+00 0.000000000000e+00 0.000000000000e+00
  0.000000000000e+00 0.000000000000e+00 0.000000000000e+00
  0.000000000000e+00 0.000000000000e+00 0.000000000000e+00
  0.000000000000e+00 0.000000000000e+00 0.000000000000e+00
  0.000000000000e+00 0.000000000000e+00 0.000000000000e+00
  0.000000000000e+00 0.000000000000e+00 0.000000000000e+00
  0.000000000000e+00 0.000000000000e+00 0.000000000000e+00
  0.000000000000e+00 0.000000000000e+00 0.000000000000e+00
  0.000000000000e+00 0.000000000000e+00 0.000000000000e+00
  0.000000000000e+00 0.000000000000e+00 0.000000000000e+00
  0.000000000000e+00 0.000000000000e+00 0.000000000000e+00
  0.000000000000e+00 0.000000000000e+00 0.000000000000e+00
  0.000000000000e+00 0.000000000000e+00 0.000000000000e+00
  0.000000000000e+00 0.000000000000e+00 0.000000000000e+00
  0.000000000000e+00 0.000000000000e+00 0.000000000000e+00
  0.000000000000e+00 0.000000000000e+00 0.000000000000e+00
  0.000000000000e+00 0.000000000000e+00 0.000000000000e+00
  0.000000000000e+00 0.000000000000e+00 0.000000000000e+00
  0.000000000000e+00 0.000000000000e+00 0.000000000000e+00
  0.000000000000e+00 0.000000000000e+00 0.000000000000e+00
  0.000000000000e+00 0.000000000000e+00 0.000000000000e+00
  0.000000000000e+00 0.000000000000e+00 0.000000000000e+00
  0.000000000000e+00 0.000000000000e+00 0.000000000000e+00
  0.000000000000e+00 0.000000000000e+00 0.000000000000e+00
  0.000000000000e+00 0.000000000000e+00 0.000000000000e+00
  0.000000000000e+00 0.000000000000e+00 0.000000000000e+00
  0.000000000000e+00 0.000000000000e+00 0.000000000000e+00
  0.000000000000e+00 0.000000000000e+00 0.000000000000e+00
  0.000000000000e+00 0.000000000000e+00 0.000000000000e+00
  0.000000000000e+00 0.000000000000e+00 0.000000000000e+00
  0.000000000000e+00 0.000000000000e+00 0.000000000000e+00
  0.000000000000e+00 0.000000000000e+00 0.000000000000e+00
  0.000000000000e+00 0.000000000000e+00 0.000000000000e+00
  0.000000000000e+00 0.000000000000e+00 0.000000000000e+00
  0.000000000000e+00 0.000000000000e+00 0.000000000000e+00
  0.000000000000e+00 0.000000000000e+00 0.000000000000e+00
  0.000000000000e+00 0.000000000000e+00 0.000000000000e+00
  0.000000000000e+00 0.000000000000e+00 0.000000000000e+00
  0.000000000000e+00 0.000000000000e+00 0.000000000000e+00
  0.000000000000e+00 0.000000000000e+00 0.000000000000e+00
  0.000000000000e+00 0.000000000000e+00 0.000000000000e+00
  0.000000000000e+00 0.000000000000e+00 0.000000000000e+00
  0.000000000000e+00 0.000000000000e+00 0.000000000000e+00
  0.000000000000e+00 0.000000000000e+00 0.000000000000e+00
  0.000000000000e+00 0.000000000000e+00 0.000000000000e+00
  0.000000000000e+00 0.000000000000e+00 0.000000000000e+00
  0.000000000000e+00 0.000000000000e+00 0.000000000000e+00
  0.000000000000e+00 0.000000000000e+00 0.000000000000e+00
  0.000000000000e+00 0.000000000000e+00 0.000000000000e+00
  0.000000000000e+00 0.000000000000e+00 0.000000000000e+00
  0.000000000000e+00 0.000000000000e+00 0.000000000000e+00
  0.000000000000e+00 0.000000000000e+00 0.000000000000e+00
  0.000000000000e+00 0.000000000000e+00 0.000000000000e+00
  0.000000000000e+00 0.000000000000e+00 0.000000000000e+00
  0.000000000000e+00 0.000000000000e+00 0.000000000000e+00
  0.000000000000e+00 0.000000000000e+00 0.000000000000e+00
  0.000000000000e+00 0.000000000000e+00 0.000000000000e+00
  0.000000000000e+00 0.000000000000e+00 0.000000000000e+00
  0.000000000000e+00 0.000000000000e+00 0.000000000000e+00
  0.000000000000e+00 0.000000000000e+00 0.000000000000e+00
  0.000000000000e+00 0.000000000000e+00 0.000000000000e+00
  0.000000000000e+00 0.000000000000e+00 0.000000000000e+00
  0.000000000000e+00 0.000000000000e+00 0.000000000000e+00
  0.000000000000e+00 0.000000000000e+00 0.000000000000e+00
  0.000000000000e+00 0.000000000000e+00 0.000000000000e+00
  0.000000000000e+00 0.000000000000e+00 0.000000000000e+00
  0.000000000000e+00 0.000000000000e+00 0.000000000000e+00
  0.000000000000e+00 0.000000000000e+00 0.000000000000e+00
  0.000000000000e+00 0.000000000000e+00 0.000000000000e+00
  0.000000000000e+00 0.000000000000e+00 0.000000000000e+00
  0.000000000000e+00 0.000000000000e+00 0.000000000000e+00
  0.000000000000e+00 0.000000000000e+00 0.000000000000e+00
  0.000000000000e+00 0.000000000000e+00 0.000000000000e+00
  0.000000000000e+00 0.000000000000e+00 0.000000000000e+00
  0.000000000000e+00 0.000000000000e+00 0.000000000000e+00
  0.000000000000e+00 0.000000000000e+00 0.000000000000e+00
  0.000000000000e+00 0.000000000000e+00 0.000000000000e+00
  0.000000000000e+00 0.000000000000e+00 0.000000000000e+00
  0.000000000000e+00 0.000000000000e+00 0.000000000000e+00
  0.000000000000e+00 0.000000000000e+00 0.000000000000e+00
  0.000000000000e+00 0.000000000000e+00 0.000000000000e+00
  0.000000000000e+00 0.000000000000e+00 0.000000000000e+00
  0.000000000000e+00 0.000000000000e+00 0.000000000000e+00
  0.000000000000e+00 0.000000000000e+00 0.000000000000e+00
  0.000000000000e+00 0.000000000000e+00 0.000000000000e+00
  -9.372490258652e-04 9.372490258652e-04 0.000000000000e+00
  -8.993971498641e-04 2.609360670583e-03 0.000000000000e+00
  -8.170683632605e-04 3.613934493668e-03 0.000000000000e+00
  -6.775291442685e-04 3.307113114650e-03 0.000000000000e+00
  -4.636540499778e-04 7.613834917709e-04 0.000000000000e+00
  -1.580163542040e-04 -5.298278994753e-03 0.000000000000e+00
  2.494613870579e-04 -1.646743902812e-02 0.000000000000e+00
  7.499461469553e-04 -3.447865348657e-02 0.000000000000e+00
  1.301815222811e-03 -6.080286482888e-02 0.000000000000e+00
  1.818902641328e-03 -9.602627268054e-02 0.000000000000e+00
  2.168064496367e-03 -1.390919318763e-01 0.000000000000e+00
  2.184084708304e-03 -1.866254803898e-01 0.000000000000e+00
  1.706896691646e-03 -2.326718327038e-01 0.000000000000e+00
  6.384371720902e-04 -2.691745438593e-01 0.000000000000e+00
  -9.940201530838e-04 -2.873649764756e-01 0.000000000000e+00
  -2.990004333133e-03 -2.798967458688e-01 0.000000000000e+00
  -4.967238796629e-03 -2.431724052455e-01 0.000000000000e+00
  -6.407900726366e-03 -1.790594663495e-01 0.000000000000e+00
  -6.758816614209e-03 -9.526387137584e-02 0.000000000000e+00
  -5.565586601336e-03 -4.060829946676e-03 0.000000000000e+00
  -2.606222911598e-03 8.029379002615e-02 0.000000000000e+00
  2.014649839436e-03 1.446427771347e-01 0.000000000000e+00
  7.843067918884e-03 1.795445941986e-01 0.000000000000e+00
  1.413975520381e-02 1.807721530412e-01 0.000000000000e+00
  2.002327786279e-02 1.495439367267e-01 0.000000000000e+00
  2.466086383829e-02 9.174756557053e-02 0.000000000000e+00
  2.745736080448e-02 1.655084942430e-02 0.000000000000e+00
  2.818786628547e-02 -6.528681838699e-02 0.000000000000e+00
  2.703288772045e-02 -1.431935046674e-01 0.000000000000e+00
  2.450520355988e-02 -2.084371442468e-01 0.000000000000e+00
  2.129476569067e-02 -2.553587189489e-01 0.000000000000e+00
  1.808596754334e-02 -2.818997326385e-01 0.000000000000e+00
  1.540695761745e-02 -2.893110325483e-01 0.000000000000e+00
  1.355132977505e-02 -2.812009433561e-01 0.000000000000e+00
  1.257963834246e-02 -2.622878893830e-01 0.000000000000e+00
  1.237893552507e-02 -2.372538819811e-01 0.000000000000e+00
  1.274523278770e-02 -2.099638322300e-01 0.000000000000e+00
  1.345782251734e-02 -1.831234736955e-01 0.000000000000e+00
  1.432835307323e-02 -1.582967530987e-01 0.000000000000e+00
  1.522207523204e-02 -1.361357014134e-01 0.000000000000e+00
  1.605795370808e-02 -1.166811723803e-01 0.000000000000e+00
  1.679731000704e-02 -9.963716785235e-02 0.000000000000e+00
  1.742924396663e-02 -8.457294690727e-02 0.000000000000e+00
  1.795787115896e-02 -7.104668685215e-02 0.000000000000e+00
  1.839334641852e-02 -5.866602732393e-02 0.000000000000e+00
  1.874662024497e-02 -4.710712683372e-02 0.000000000000e+00
  1.902696737727e-02 -3.611118388298e-02 0.000000000000e+00
  1.924119123109e-02 -2.547143519860e-02 0.000000000000e+00
  1.939363921608e-02 -1.501789397968e-02 0.000000000000e+00
  1.948647722664e-02 -4.602908559039e-03 0.000000000000e+00
  1.951992920023e-02 5.911880118414e-03 0.000000000000e+00
  1.949235796967e-02 1.666783832476e-02 0.000000000000e+00
  1.940017205378e-02 2.782195995682e-02 0.000000000000e+00
  1.923763673206e-02 3.956066272669e-02 0.000000000000e+00
  1.899679536646e-02 5.211470566041e-02 0.000000000000e+00
  1.866790256841e-02 6.577321693572e-02 0.000000000000e+00
  1.824102938240e-02 8.089138623961e-02 0.000000000000e+00
  1.770974057801e-02 9.788134055506e-02 0.000000000000e+00
  1.707776911392e-02 1.171699056473e-01 0.000000000000e+00
  1.636910760376e-02 1.391028527454e-01 0.000000000000e+00
  1.564056151742e-02 1.637774689531e-01 0.000000000000e+00
  1.499345041660e-02 1.907999094996e-01 0.000000000000e+00
  1.457827347072e-02 2.189952559873e-01 0.000000000000e+00
  1.458409607999e-02 2.461444004994e-01 0.000000000000e+00
  1.520522674889e-02 2.688694801978e-01 0.000000000000e+00
  1.658347161630e-02 2.828130229428e-01 0.000000000000e+00
  1.873531755305e-02 2.832229354148e-01 0.000000000000e+00
  2.148674283330e-02 2.659430944335e-01 0.000000000000e+00
  2.444685518738e-02 2.286313464552e-01 0.000000000000e+00
  2.704690439621e-02 1.718551678911e-01 0.000000000000e+00
  2.865017051621e-02 9.966146503489e-02 0.000000000000e+00
  2.870782981379e-02 1.935606917045e-02 0.000000000000e+00
  2.691175206636e-02 -5.948553748478e-02 0.000000000000e+00
  2.329179658803e-02 -1.264894659105e-01 0.000000000000e+00
  1.822530769214e-02 -1.720726092140e-01 0.000000000000e+00
  1.235885142236e-02 -1.889108354374e-01 0.000000000000e+00
  6.469849991920e-03 -1.732089803033e-01 0.000000000000e+00
  1.307916500191e-03 -1.257009871878e-01 0.000000000000e+00
  -2.546985081263e-03 -5.213769594875e-02 0.000000000000e+00
  -4.782357318731e-03 3.712973207258e-02 0.000000000000e+00
  -5.390702683105e-03 1.287470682642e-01 0.000000000000e+00
  -4.641608699969e-03 2.089783932074e-01 0.000000000000e+00
  -2.996343761447e-03 2.666676771151e-01 0.000000000000e+00
  -9.873734653499e-04 2.955790324133e-01 0.000000000000e+00
  9.042401351638e-04 2.953333789898e-01 0.000000000000e+00
  2.340327710528e-03 2.707145988165e-01 0.000000000000e+00
  3.164826793360e-03 2.297462766282e-01 0.000000000000e+00
  3.389083055037e-03 1.813251575993e-01 0.000000000000e+00
  3.139480031288e-03 1.331989875945e-01 0.000000000000e+00
  2.592237357367e-03 9.077370416110e-02 0.000000000000e+00
  1.917632101195e-03 5.683302776464e-02 0.000000000000e+00
  1.245970224505e-03 3.194433483249e-02 0.000000000000e+00
  6.565530325634e-04 1.519808366112e-02 0.000000000000e+00
  1.833824802051e-04 4.965349298111e-03 0.000000000000e+00
  -1.710688092434e-04 -5.185316463274e-04 0.000000000000e+00
  -4.212220035459e-04 -2.805945730154e-03 0.000000000000e+00
  -5.869554009962e-04 -3.096608163865e-03 0.000000000000e+00
  -6.864952559205e-04 -2.238431042249e-03 0.000000000000e+00
  -7.329246928284e-04 -8.038976660049e-04 0.000000000000e+00
  0.000000000000e+00 0.000000000000e+00 0.000000000000e+00
  0.000000000000e+00 0.000000000000e+00 0.000000000000e+00
  -2.609360670583e-03 8.993971498640e-04 0.000000000000e+00
  -2.489158909956e-03 2.489158909956e-03 0.000000000000e+00
  -2.229147010072e-03 3.391795567808e-03 0.000000000000e+00
  -1.791714280054e-03 2.952280091500e-03 0.000000000000e+00
  -1.126484073717e-03 2.371112142930e-04 0.000000000000e+00
  -1.826448203340e-04 -6.023483666432e-03 0.000000000000e+00
  1.068157400369e-03 -1.740051431841e-02 0.000000000000e+00
  2.597419113713e-03 -3.557532466953e-02 0.000000000000e+00
  4.278727560594e-03 -6.193937116866e-02 0.000000000000e+00
  5.853371028438e-03 -9.698149722712e-02 0.000000000000e+00
  6.924029440867e-03 -1.395565275972e-01 0.000000000000e+00
  7.000304279101e-03 -1.862531797191e-01 0.000000000000e+00
  5.610630590399e-03 -2.311772716692e-01 0.000000000000e+00
  2.472134068373e-03 -2.664621488524e-01 0.000000000000e+00
  -2.321388681852e-03 -2.836513914072e-01 0.000000000000e+00
  -8.159542773806e-03 -2.757761926652e-01 0.000000000000e+00
  -1.389479863488e-02 -2.395804681244e-01 0.000000000000e+00
  -1.798723277206e-02 -1.771183074037e-01 0.000000000000e+00
  -1.880918641966e-02 -9.603216078629e-02 0.000000000000e+00
  -1.504600030125e-02 -8.248956667511e-03 0.000000000000e+00
  -6.086555771382e-03 7.256310852738e-02 0.000000000000e+00
  7.712456684120e-03 1.339535734270e-01 0.000000000000e+00
  2.497840598554e-02 1.671394305255e-01 0.000000000000e+00
  4.352674394205e-02 1.683322914728e-01 0.000000000000e+00
  6.078616098621e-02 1.388408585919e-01 0.000000000000e+00
  7.434952549945e-02 8.424969321659e-02 0.000000000000e+00
  8.251004538656e-02 1.309170492494e-02 0.000000000000e+00
  8.463259734687e-02 -6.468073132893e-02 0.000000000000e+00
  8.124840297957e-02 -1.392604187931e-01 0.000000000000e+00
  7.384432704061e-02 -2.024384700215e-01 0.000000000000e+00
  6.442025233340e-02 -2.487228805977e-01 0.000000000000e+00
  5.496631197991e-02 -2.758728324887e-01 0.000000000000e+00
  4.702844995584e-02 -2.847210607478e-01 0.000000000000e+00
  4.147829677130e-02 -2.783851341289e-01 0.000000000000e+00
  3.851136457728e-02 -2.611650749820e-01 0.000000000000e+00
  3.781395232584e-02 -2.374785813104e-01 0.000000000000e+00
  3.879952474734e-02 -2.110910025798e-01 0.000000000000e+00
  4.082494214452e-02 -1.847343104642e-01 0.000000000000e+00
  4.333573372586e-02 -1.600672384542e-01 0.000000000000e+00
  4.593119792401e-02 -1.378544023954e-01 0.000000000000e+00
  4.836743401818e-02 -1.182345859409e-01 0.000000000000e+00
  5.052581651164e-02 -1.009814930469e-01 0.000000000000e+00
  5.237096051118e-02 -8.570569962393e-02 0.000000000000e+00
  5.391323010901e-02 -7.198483086739e-02 0.000000000000e+00
  5.518196184255e-02 -5.943209023481e-02 0.000000000000e+00
  5.620956202959e-02 -4.772193786394e-02 0.000000000000e+00
  5.702383220918e-02 -3.659099009171e-02 0.000000000000e+00
  5.764535738510e-02 -2.582737795209e-02 0.000000000000e+00
  5.808740051152e-02 -1.525644228183e-02 0.000000000000e+00
  5.835664180543e-02 -4.726439523056e-03 0.000000000000e+00
  5.845386078454e-02 5.904740146386e-03 0.000000000000e+00
  5.837417384200e-02 1.678223646306e-02 0.000000000000e+00
  5.810677626152e-02 2.806714528532e-02 0.000000000000e+00
  5.763443003481e-02 3.995035889758e-02 0.000000000000e+00
  5.693332861303e-02 5.266695221356e-02 0.000000000000e+00
  5.597455239721e-02 6.650863932500e-02 0.000000000000e+00
  5.472907968364e-02 8.182830967660e-02 0.000000000000e+00
  5.317898353205e-02 9.902580200427e-02 0.000000000000e+00
  5.133743905650e-02 1.184989600755e-01 0.000000000000e+00
  4.927857203450e-02 1.405413267970e-01 0.000000000000e+00
  4.717404939084e-02 1.651720635898e-01 0.000000000000e+00
  4.532640083951e-02 1.919000744836e-01 0.000000000000e+00
  4.418085137410e-02 2.194558173920e-01 0.000000000000e+00
  4.429185449556e-02 2.455670133485e-01 0.000000000000e+00
  4.622347829916e-02 2.668941128662e-01 0.000000000000e+00
  5.037994487319e-02 2.792536788267e-01 0.000000000000e+00
  5.679477284759e-02 2.782156056160e-01 0.000000000000e+00
  6.494486255123e-02 2.600489092463e-01 0.000000000000e+00
  7.367894256139e-02 2.228313392771e-01 0.000000000000e+00
  8.133486093185e-02 1.673992074894e-01 0.000000000000e+00
  8.605908615920e-02 9.778993408899e-02 0.000000000000e+00
  8.625548876666e-02 2.097353821118e-02 0.000000000000e+00
  8.102340172312e-02 -5.407484173460e-02 0.000000000000e+00
  7.043714473356e-02 -1.176939491928e-01 0.000000000000e+00
  5.557679930787e-02 -1.609412916101e-01 0.000000000000e+00
  3.831017350008e-02 -1.769090709637e-01 0.000000000000e+00
  2.090163662437e-02 -1.619132064708e-01 0.000000000000e+00
  5.556752898826e-03 -1.164899438030e-01 0.000000000000e+00
  -5.993965088314e-03 -4.594311976495e-02 0.000000000000e+00
  -1.279239298405e-02 3.996895602198e-02 0.000000000000e+00
  -1.477808272941e-02 1.285018794245e-01 0.000000000000e+00
  -1.271894213076e-02 2.064153474652e-01 0.000000000000e+00
  -7.965543367401e-03 2.628320591554e-01 0.000000000000e+00
  -2.094286406112e-03 2.915344231156e-01 0.000000000000e+00
  3.460566959922e-03 2.919315213209e-01 0.000000000000e+00
  7.684024340876e-03 2.684569115291e-01 0.000000000000e+00
  1.010138556234e-02 2.287621036113e-01 0.000000000000e+00
  1.073738234500e-02 1.814490775719e-01 0.000000000000e+00
  9.961809000078e-03 1.341002439906e-01 0.000000000000e+00
  8.295900763806e-03 9.208559867517e-02 0.000000000000e+00
  6.246002922999e-03 5.824563634755e-02 0.000000000000e+00
  4.201503511834e-03 3.324788753744e-02 0.000000000000e+00
  2.401036848381e-03 1.628441481157e-02 0.000000000000e+00
  9.486156873528e-04 5.804609861050e-03 0.000000000000e+00
  -1.459517040439e-04 9.122647157884e-05 0.000000000000e+00
  -9.237525281046e-04 -2.387749829697e-03 0.000000000000e+00
  -1.442737581256e-03 -2.830085613720e-03 0.000000000000e+00
  -1.756438679464e-03 -2.091712639262e-03 0.000000000000e+00
  -1.903423339413e-03 -7.572019721358e-04 0.000000000000e+00
  0.000000000000e+00 0.000000000000e+00 0.000000000000e+00
  0.000000000000e+00 0.000000000000e+00 0.000000000000e+00
  -3.613934493668e-03 8.170683632607e-04 0.000000000000e+00
  -3.391795567808e-03 2.229147010072e-03 0.000000000000e+00
  -2.915787275222e-03 2.915787275222e-03 0.000000000000e+00
  -2.125308111926e-03 2.200376490773e-03 0.000000000000e+00
  -9.398905472189e-04 -8.616329560246e-04 0.000000000000e+00
  7.200675116746e-04 -7.528536808391e-03 0.000000000000e+00
  2.895371256965e-03 -1.932156714244e-02 0.000000000000e+00
  5.531681968809e-03 -3.781984427068e-02 0.000000000000e+00
  8.413112484681e-03 -6.425759053026e-02 0.000000000000e+00
  1.110790540385e-02 -9.893271425253e-02 0.000000000000e+00
  1.296132979422e-02 -1.405293933746e-01 0.000000000000e+00
  1.317429779495e-02 -1.855695567806e-01 0.000000000000e+00
  1.099051145864e-02 -2.282874345826e-01 0.000000000000e+00
  5.976643064911e-03 -2.611996210232e-01 0.000000000000e+00
  -1.672002009504e-03 -2.764717514117e-01 0.000000000000e+00
  -1.091125721995e-02 -2.678784233583e-01 0.000000000000e+00
  -1.983139913842e-02 -2.328228396518e-01 0.000000000000e+00
  -2.591654813925e-02 -1.736983527383e-01 0.000000000000e+00
  -2.656285561920e-02 -9.798385432412e-02 0.000000000000e+00
  -1.973783411250e-02 -1.688547075479e-02 0.000000000000e+00
  -4.595861711439e-03 5.709820568372e-02 0.000000000000e+00
  1.813957052617e-02 1.128840315775e-01 0.000000000000e+00
  4.615660560066e-02 1.429259879990e-01 0.000000000000e+00
  7.592903362638e-02 1.442249680171e-01 0.000000000000e+00
  1.034081658849e-01 1.182096327451e-01 0.000000000000e+00
  1.248720607841e-01 6.985365965098e-02 0.000000000000e+00
  1.377231536143e-01 6.476125773198e-03 0.000000000000e+00
  1.410251661982e-01 -6.348971672130e-02 0.000000000000e+00
  1.356282479499e-01 -1.316703207850e-01 0.000000000000e+00
  1.238457681181e-01 -1.908420122586e-01 0.000000000000e+00
  1.087879199600e-01 -2.358374154947e-01 0.000000000000e+00
  9.357045597248e-02 -2.640868932493e-01 0.000000000000e+00
  8.064640292765e-02 -2.756450849154e-01 0.000000000000e+00
  7.143817930048e-02 -2.727027331439e-01 0.000000000000e+00
  6.631497559340e-02 -2.587573400553e-01 0.000000000000e+00
  6.483403217701e-02 -2.377079605502e-01 0.000000000000e+00
  6.609951441780e-02 -2.131126779698e-01 0.000000000000e+00
  6.910108869103e-02 -1.877396266919e-01 0.000000000000e+00
  7.294940757972e-02 -1.634210326148e-01 0.000000000000e+00
  7.698866061932e-02 -1.411353253518e-01 0.000000000000e+00
  8.081013391542e-02 -1.212113722048e-01 0.000000000000e+00
  8.420784781246e-02 -1.035608029456e-01 0.000000000000e+00
  8.711405491627e-02 -8.787774053802e-02 0.000000000000e+00
  8.953942146294e-02 -7.378042574634e-02 0.000000000000e+00
  9.152897405609e-02 -6.089477928052e-02 0.000000000000e+00
  9.313508725769e-02 -4.889296177415e-02 0.000000000000e+00
  9.440386922240e-02 -3.750301789113e-02 0.000000000000e+00
  9.537008100915e-02 -2.650308671376e-02 0.000000000000e+00
  9.605646373522e-02 -1.570915904106e-02 0.000000000000e+00
  9.647469112568e-02 -4.961191219867e-03 0.000000000000e+00
  9.662638309543e-02 5.890580995135e-03 0.000000000000e+00
  9.650348457485e-02 1.699898103964e-02 0.000000000000e+00
  9.608790803094e-02 2.853337466088e-02 0.000000000000e+00
  9.535086175988e-02 4.069352173169e-02 0.000000000000e+00
  9.425295697198e-02 5.372279521497e-02 0.000000000000e+00
  9.274714201828e-02 6.791738706882e-02 0.000000000000e+00
  9.078768051986e-02 8.362449570693e-02 0.000000000000e+00
  8.834932320724e-02 1.012180690189e-01 0.000000000000e+00
  8.546055433906e-02 1.210370060281e-01 0.000000000000e+00
  8.225189636801e-02 1.432708055183e-01 0.000000000000e+00
  7.901337530960e-02 1.677856283143e-01 0.000000000000e+00
  7.624428064967e-02 1.939032527749e-01 0.000000000000e+00
  7.466597065082e-02 2.201764984230e-01 0.000000000000e+00
  7.516102999427e-02 2.442402697544e-01 0.000000000000e+00
  7.860864809021e-02 2.628416144961e-01 0.000000000000e+00
  8.561455261237e-02 2.721438060600e-01 0.000000000000e+00
  9.618400900336e-02 2.683411939930e-01 0.000000000000e+00
  1.094426840619e-01 2.485145560932e-01 0.000000000000e+00
  1.235410688508e-01 2.115332276235e-01 0.000000000000e+00
  1.358503857906e-01 1.587320838287e-01 0.000000000000e+00
  1.434626047533e-01 9.412061355767e-02 0.000000000000e+00
  1.438788238582e-01 2.403023702927e-02 0.000000000000e+00
  1.356751696496e-01 -4.369579930094e-02 0.000000000000e+00
  1.189294433931e-01 -1.007410083806e-01 0.000000000000e+00
  9.527889908743e-02 -1.393833426909e-01 0.000000000000e+00
  6.760853680596e-02 -1.535300317936e-01 0.000000000000e+00
  3.947372609040e-02 -1.397488980496e-01 0.000000000000e+00
  1.440656751679e-02 -9.824220992503e-02 0.000000000000e+00
  -4.746781364826e-03 -3.348678677412e-02 0.000000000000e+00
  -1.633108686228e-02 4.589535642434e-02 0.000000000000e+00
  -2.012840474497e-02 1.283584866502e-01 0.000000000000e+00
  -1.728726561577e-02 2.016584605117e-01 0.000000000000e+00
  -9.947678617404e-03 2.554959603472e-01 0.000000000000e+00
  -6.635646340336e-04 2.837151509791e-01 0.000000000000e+00
  8.208504020895e-03 2.853238714365e-01 0.000000000000e+00
  1.497821757324e-02 2.640713904803e-01 0.000000000000e+00
  1.883394156429e-02 2.268745394476e-01 0.000000000000e+00
  1.978581270399e-02 1.817487738132e-01 0.000000000000e+00
  1.841831456547e-02 1.359436192327e-01 0.000000000000e+00
  1.557473557492e-02 9.475171065988e-02 0.000000000000e+00
  1.208354444831e-02 6.112061333026e-02 0.000000000000e+00
  8.588365213720e-03 3.591258920049e-02 0.000000000000e+00
  5.489271427522e-03 1.851927359817e-02 0.000000000000e+00
  2.966330187929e-03 7.545113475068e-03 0.000000000000e+00
  1.043942457688e-03 1.367677979199e-03 0.000000000000e+00
  -3.389974243431e-04 -1.503460631225e-03 0.000000000000e+00
  -1.273332584681e-03 -2.261054598702e-03 0.000000000000e+00
  -1.844343080999e-03 -1.776032059754e-03 0.000000000000e+00
  -2.113947340780e-03 -6.562936319141e-04 0.000000000000e+00
  0.000000000000e+00 0.000000000000e+00 0.000000000000e+00
  0.000000000000e+00 0.000000000000e+00 0.000000000000e+00
  -3.307113114651e-03 6.775291442690e-04 0.000000000000e+00
  -2.952280091500e-03 1.791714280054e-03 0.000000000000e+00
  -2.200376490773e-03 2.125308111926e-03 0.000000000000e+00
  -9.712942569943e-04 9.712942569948e-04 0.000000000000e+00
  8.397953900835e-04 -2.629057934031e-03 0.000000000000e+00
  3.333106069033e-03 -9.914380568228e-03 0.000000000000e+00
  6.551699771203e-03 -2.232962083007e-02 0.000000000000e+00
  1.040482196044e-02 -4.130122348414e-02 0.000000000000e+00
  1.457938863414e-02 -6.783220850638e-02 0.000000000000e+00
  1.847050982605e-02 -1.019440103875e-01 0.000000000000e+00
  2.117896270709e-02 -1.420799745111e-01 0.000000000000e+00
  2.162693709505e-02 -1.846799180329e-01 0.000000000000e+00
  1.882053702349e-02 -2.241868869225e-01 0.000000000000e+00
  1.223394881128e-02 -2.536997120774e-01 0.000000000000e+00
  2.218488301333e-03 -2.663075547732e-01 0.000000000000e+00
  -9.718583203881e-03 -2.568662932812e-01 0.000000000000e+00
  -2.092661727339e-02 -2.237067937410e-01 0.000000000000e+00
  -2.800689679680e-02 -1.696489701249e-01 0.000000000000e+00
  -2.754979011722e-02 -1.018440361371e-01 0.000000000000e+00
  -1.703038178239e-02 -3.036971878329e-02 0.000000000000e+00
  4.405894983682e-03 3.400420454508e-02 0.000000000000e+00
  3.552019002467e-02 8.212830543755e-02 0.000000000000e+00
  7.306218019275e-02 1.081226888964e-01 0.000000000000e+00