# vtk DataFile Version 3.0
Karman Output
ASCII
DATASET RECTILINEAR_GRID
DIMENSIONS 101 101 1
X_COORDINATES 101 float
   0.000000000000e+00   9.900990099010e-03   1.980198019802e-02   2.970297029703e-02   3.960396039604e-02   4.950495049505e-02   5.940594059406e-02   6.930693069307e-02   7.920792079208e-02   8.910891089109e-02   9.900990099010e-02   1.089108910891e-01   1.188118811881e-01   1.287128712871e-01   1.386138613861e-01   1.485148514851e-01   1.584158415842e-01   1.683168316832e-01   1.782178217822e-01   1.881188118812e-01   1.980198019802e-01   2.079207920792e-01   2.178217821782e-01   2.277227722772e-01   2.376237623762e-01   2.475247524752e-01   2.574257425743e-01   2.673267326733e-01   2.772277227723e-01   2.871287128713e-01   2.970297029703e-01   3.069306930693e-01   3.168316831683e-01   3.267326732673e-01   3.366336633663e-01   3.465346534653e-01   3.564356435644e-01   3.663366336634e-01   3.762376237624e-01   3.861386138614e-01   3.960396039604e-01   4.059405940594e-01   4.158415841584e-01   4.257425742574e-01   4.356435643564e-01   4.455445544554e-01   4.554455445545e-01   4.653465346535e-01   4.752475247525e-01   4.851485148515e-01   4.950495049505e-01   5.049504950495e-01   5.148514851485e-01   5.247524752475e-01   5.346534653465e-01   5.445544554455e-01   5.544554455446e-01   5.643564356436e-01   5.742574257426e-01   5.841584158416e-01   5.940594059406e-01   6.039603960396e-01   6.138613861386e-01   6.237623762376e-01   6.336633663366e-01   6.435643564356e-01   6.534653465347e-01   6.633663366337e-01   6.732673267327e-01   6.831683168317e-01   6.930693069307e-01   7.029702970297e-01   7.128712871287e-01   7.227722772277e-01   7.326732673267e-01   7.425742574257e-01   7.524752475248e-01   7.623762376238e-01   7.722772277228e-01   7.821782178218e-01   7.920792079208e-01   8.019801980198e-01   8.118811881188e-01   8.217821782178e-01   8.316831683168e-01   8.415841584158e-01   8.514851485149e-01   8.613861386139e-01   8.712871287129e-01   8.811881188119e-01   8.910891089109e-01   9.009900990099e-01   9.108910891089e-01   9.207920792079e-01   9.306930693069e-01   9.405940594059e-01   9.504950495050e-01   9.603960396040e-01   9.702970297030e-01   9.801980198020e-01   9.900990099010e-01
Y_COORDINATES 101 float
   0.000000000000e+00   9.900990099010e-03   1.980198019802e-02   2.970297029703e-02   3.960396039604e-02   4.950495049505e-02   5.940594059406e-02   6.930693069307e-02   7.920792079208e-02   8.910891089109e-02   9.900990099010e-02   1.089108910891e-01   1.188118811881e-01   1.287128712871e-01   1.386138613861e-01   1.485148514851e-01   1.584158415842e-01   1.683168316832e-01   1.782178217822e-01   1.881188118812e-01   1.980198019802e-01   2.079207920792e-01   2.178217821782e-01   2.277227722772e-01   2.376237623762e-01   2.475247524752e-01   2.574257425743e-01   2.673267326733e-01   2.772277227723e-01   2.871287128713e-01   2.970297029703e-01   3.069306930693e-01   3.168316831683e-01   3.267326732673e-01   3.366336633663e-01   3.465346534653e-01   3.564356435644e-01   3.663366336634e-01   3.762376237624e-01   3.861386138614e-01   3.960396039604e-01   4.059405940594e-01   4.158415841584e-01   4.257425742574e-01   4.356435643564e-01   4.455445544554e-01   4.554455445545e-01   4.653465346535e-01   4.752475247525e-01   4.851485148515e-01   4.950495049505e-01   5.049504950495e-01   5.148514851485e-01   5.247524752475e-01   5.346534653465e-01   5.445544554455e-01   5.544554455446e-01   5.643564356436e-01   5.742574257426e-01   5.841584158416e-01   5.940594059406e-01   6.039603960396e-01   6.138613861386e-01   6.237623762376e-01   6.336633663366e-01   6.435643564356e-01   6.534653465347e-01   6.633663366337e-01   6.732673267327e-01   6.831683168317e-01   6.930693069307e-01   7.029702970297e-01   7.128712871287e-01   7.227722772277e-01   7.326732673267e-01   7.425742574257e-01   7.524752475248e-01   7.623762376238e-01   7.722772277228e-01   7.821782178218e-01   7.920792079208e-01   8.019801980198e-01   8.118811881188e-01   8.217821782178e-01   8.316831683168e-01   8.415841584158e-01   8.514851485149e-01   8.613861386139e-01   8.712871287129e-01   8.811881188119e-01   8.910891089109e-01   9.009900990099e-01   9.108910891089e-01   9.207920792079e-01   9.306930693069e-01   9.405940594059e-01   9.504950495050e-01   9.603960396040e-01   9.702970297030e-01   9.801980198020e-01   9.900990099010e-01
Z_COORDINATES 1 float
  0.000000000000e+00
POINT_DATA 10201
VECTORS E_field float
  0.000000000000e+00 0.000000000000e+00 0.000000000000e+00
  0.000000000000e+00 0.000000000000e+00 0.000000000000e+00
  0.000000000000e+00 0.000000000000e+00 0.000000000000e+00
  0.000000000000e+00 0.000000000000e+00 0.000000000000e+00
  0.000000000000e+00 0.000000000000e+00 0.000000000000e+00
  0.000000000000e+00 0.000000000000e+00 0.000000000000e+00
  0.000000000000e+00 0.000000000000e+00 0.000000000000e+00
  0.000000000000e+00 0.000000000000e+00 0.000000000000e+00
  0.000000000000e+00 0.000000000000e+00 0.000000000000e+00
  0.000000000000e+00 0.000000000000e+00 0.000000000000e+00
  0.000000000000e+00 0.000000000000e+00 0.000000000000e+00
  0.000000000000e+00 0.000000000000e+00 0.000000000000e+00
  0.000000000000e+00 0.000000000000e+00 0.000000000000e+00
  0.000000000000e+00 0.000000000000e+00 0.000000000000e+00
  0.000000000000e+00 0.000000000000e+00 0.000000000000e+00
  0.000000000000e+00 0.000000000000e+00 0.000000000000e+00
  0.000000000000e+00 0.000000000000e+00 0.000000000000e+00
  0.000000000000e+00 0.000000000000e+00 0.000000000000e+00
  0.000000000000e+00 0.000000000000e+00 0.000000000000e+00
  0.000000000000e+00 0.000000000000e+00 0.000000000000e+00
  0.000000000000e+00 0.000000000000e+00 0.000000000000e+00
  0.000000000000e+00 0.000000000000e+00 0.000000000000e+00
  0.000000000000e+00 0.000000000000e+00 0.000000000000e+00
  0.000000000000e+00 0.000000000000e+00 0.000000000000e+00
  0.000000000000e+00 0.000000000000e+00 0.000000000000e+00
  0.000000000000e+00 0.000000000000e+00 0.000000000000e+00
  0.000000000000e+00 0.000000000000e+00 0.000000000000e+00
  0.000000000000e+00 0.000000000000e+00 0.000000000000e+00
  0.000000000000e+00 0.000000000000e+00 0.000000000000e+00
  0.000000000000e+00 0.000000000000e+00 0.000000000000e+00
  0.000000000000e+00 0.000000000000e+00 0.000000000000e+00
  0.000000000000e+00 0.000000000000e+00 0.000000000000e+00
  0.000000000000e+00 0.000000000000e+00 0.000000000000e+00
  0.000000000000e+00 0.000000000000e+00 0.000000000000e+00
  0.000000000000e+00 0.000000000000e+00 0.000000000000e+00
  0.000000000000e+00 0.000000000000e+00 0.000000000000e+00
  0.000000000000e+00 0.000000000000e+00 0.000000000000e+00
  0.000000000000e+00 0.000000000000e+00 0.000000000000e+00
  0.000000000000e+00 0.000000000000e+00 0.000000000000e+00
  0.000000000000e+00 0.000000000000e+00 0.000000000000e+00
  0.000000000000e+00 0.000000000000e+00 0.000000000000e+00
  0.000000000000e+00 0.000000000000e+00 0.000000000000e+00
  0.000000000000e+00 0.000000000000e+00 0.000000000000e+00
  0.000000000000e+00 0.000000000000e+00 0.000000000000e+00
  0.000000000000e+00 0.000000000000e+00 0.000000000000e+00
  0.000000000000e+00 0.000000000000e+00 0.000000000000e+00
  0.000000000000e+00 0.000000000000e+00 0.000000000000e+00
  0.000000000000e+00 0.000000000000e+00 0.000000000000e+00
  0.000000000000e+00 0.000000000000e+00 0.000000000000e+00
  0.000000000000e+00 0.000000000000e+00 0.000000000000e+00
  0.000000000000e+00 0.000000000000e+00 0.000000000000e+00
  0.000000000000e+00 0.000000000000e+00 0.000000000000e+00
  0.000000000000e+00 0.000000000000e+00 0.000000000000e+00
  0.000000000000e+00 0.000000000000e+00 0.000000000000e+00
  0.000000000000e+00 0.000000000000e+00 0.000000000000e+00
  0.000000000000e+00 0.000000000000e+00 0.000000000000e+00
  0.000000000000e+00 0.000000000000e+00 0.000000000000e+00
  0.000000000000e+00 0.000000000000e+00 0.000000000000e+00
  0.000000000000e+00 0.000000000000e+00 0.000000000000e+00
  0.000000000000e+00 0.000000000000e+00 0.000000000000e+00
  0.000000000000e+00 0.000000000000e+00 0.000000000000e+00
  0.000000000000e+00 0.000000000000e+00 0.000000000000e+00
  0.000000000000e+00 0.000000000000e+00 0.000000000000e+00
  0.000000000000e+00 0.000000000000e+00 0.000000000000e+00
  0.000000000000e+00 0.000000000000e+00 0.000000000000e+00
  0.000000000000e+00 0.000000000000e+00 0.000000000000e+00
  0.000000000000e+00 0.000000000000e+00 0.000000000000e+00
  0.000000000000e+00 0.000000000000e+00 0.000000000000e+00
  0.000000000000e+00 0.000000000000e+00 0.000000000000e+00
  0.000000000000e+00 0.000000000000e+00 0.000000000000e+00
  0.000000000000e+00 0.000000000000e+00 0.000000000000e+00
  0.000000000000e+00 0.000000000000e+00 0.000000000000e+00
  0.000000000000e+00 0.000000000000e+00 0.000000000000e+00
  0.000000000000e+00 0.000000000000e+00 0.000000000000e+00
  0.000000000000e+00 0.000000000000e+00 0.000000000000e+00
  0.000000000000e+00 0.000000000000e+00 0.000000000000e+00
  0.000000000000e+00 0.000000000000e+00 0.000000000000e+00
  0.000000000000e+00 0.000000000000e+00 0.000000000000e+00
  0.000000000000e+00 0.000000000000e+00 0.000000000000e+00
  0.000000000000e+00 0.000000000000e+00 0.000000000000e+00
  0.000000000000e+00 0.000000000000e+00 0.000000000000e+00
  0.000000000000e+00 0.000000000000e+00 0.000000000000e+00
  0.000000000000e+00 0.000000000000e+00 0.000000000000e+00
  0.000000000000e+00 0.000000000000e+00 0.000000000000e+00
  0.000000000000e+00 0.000000000000e+00 0.000000000000e+00
  0.000000000000e+00 0.000000000000e+00 0.000000000000e+00
  0.000000000000e+00 0.000000000000e+00 0.000000000000e+00
  0.000000000000e+00 0.000000000000e+00 0.000000000000e+00
  0.000000000000e+00 0.000000000000e+00 0.000000000000e+00
  0.000000000000e+00 0.000000000000e+00 0.000000000000e+00
  0.000000000000e+00 0.000000000000e+00 0.000000000000e+00
  0.000000000000e+00 0.000000000000e+00 0.000000000000e+00
  0.000000000000e+00 0.000000000000e+00 0.000000000000e+00
  0.000000000000e+00 0.000000000000e+00 0.000000000000e+00
  0.000000000000e+00 0.000000000000e+00 0.000000000000e+00
  0.000000000000e+00 0.000000000000e+00 0.000000000000e+00
  0.000000000000e+00 0.000000000000e+00 0.000000000000e+00
  0.000000000000e+00 0.000000000000e+00 0.000000000000e+00
  0.000000000000e+00 0.000000000000e+00 0.000000000000e+00
  0.000000000000e+00 0.000000000000e+00 0.000000000000e+00
  0.000000000000e+00 0.000000000000e+00 0.000000000000e+00
  0.000000000000e+00 0.000000000000e+00 0.000000000000e+00
  7.082333491822e-02 -7.082333491822e-02 0.000000000000e+00
  6.754339324513e-02 -2.076263591063e-01 0.000000000000e+00
  6.144281094891e-02 -3.309131567358e-01 0.000000000000e+00
  5.334040384183e-02 -4.347582223786e-01 0.000000000000e+00
  4.423958210823e-02 -5.169313156368e-01 0.000000000000e+00
  3.512200125865e-02 -5.788275304205e-01 0.000000000000e+00
  2.676204773479e-02 -6.244208932022e-01 0.000000000000e+00
  1.960898483372e-02 -6.585272447296e-01 0.000000000000e+00
  1.376351721359e-02 -6.848843153626e-01 0.000000000000e+00
  9.045418305638e-03 -7.047066500541e-01 0.000000000000e+00
  5.119408314709e-03 -7.163004767701e-01 0.000000000000e+00
  1.630799707713e-03 -7.159322691879e-01 0.000000000000e+00
  -1.691791652919e-03 -6.995759505784e-01 0.000000000000e+00
  -4.986333861699e-03 -6.647612567812e-01 0.000000000000e+00
  -8.253735120330e-03 -6.117806636123e-01 0.000000000000e+00
  -1.138092721990e-02 -5.439328450347e-01 0.000000000000e+00
  -1.417416574243e-02 -4.669521916067e-01 0.000000000000e+00
  -1.639795700247e-02 -3.879772875231e-01 0.000000000000e+00
  -1.782247581742e-02 -3.143109769959e-01 0.000000000000e+00
  -1.827843029788e-02 -2.520597726833e-01 0.000000000000e+00
  -1.770749486209e-02 -2.047650637368e-01 0.000000000000e+00
  -1.618957748795e-02 -1.723659192647e-01 0.000000000000e+00
  -1.393293772556e-02 -1.510151748055e-01 0.000000000000e+00
  -1.122781355227e-02 -1.341268654742e-01 0.000000000000e+00
  -8.379705857189e-03 -1.145249977740e-01 0.000000000000e+00
  -5.645698847380e-03 -8.696971622200e-02 0.000000000000e+00
  -3.193123811229e-03 -5.005971982227e-02 0.000000000000e+00
  -1.088428718590e-03 -6.766042586027e-03 0.000000000000e+00
  6.875856374607e-04 3.650221124635e-02 0.000000000000e+00
  2.208587421118e-03 7.176799197155e-02 0.000000000000e+00
  3.566586213413e-03 9.150612427534e-02 0.000000000000e+00
  4.839156006541e-03 9.021821246686e-02 0.000000000000e+00
  6.065539001550e-03 6.536382796931e-02 0.000000000000e+00
  7.235172146383e-03 1.772731151686e-02 0.000000000000e+00
  8.289711510831e-03 -4.867526862101e-02 0.000000000000e+00
  9.136079958703e-03 -1.271448900212e-01 0.000000000000e+00
  9.665427373364e-03 -2.093048925938e-01 0.000000000000e+00
  9.773988097885e-03 -2.863998720785e-01 0.000000000000e+00
  9.386191094105e-03 -3.505457637016e-01 0.000000000000e+00
  8.482866201553e-03 -3.956096616540e-01 0.000000000000e+00
  7.132471658209e-03 -4.176537428525e-01 0.000000000000e+00
  5.511928317542e-03 -4.151495238585e-01 0.000000000000e+00
  3.895441753105e-03 -3.891822019288e-01 0.000000000000e+00
  2.596053430808e-03 -3.435799638278e-01 0.000000000000e+00
  1.867980080524e-03 -2.845958451885e-01 0.000000000000e+00
  1.806196135214e-03 -2.197905797683e-01 0.000000000000e+00
  2.293512770951e-03 -1.561933951275e-01 0.000000000000e+00
  3.031314713508e-03 -9.835980720026e-02 0.000000000000e+00
  3.652016797804e-03 -4.718302089959e-02 0.000000000000e+00
  3.869109228412e-03 -5.807115968726e-05 0.000000000000e+00
  3.598166194593e-03 4.759594299131e-02 0.000000000000e+00
  2.992737695643e-03 1.000439149961e-01 0.000000000000e+00
  2.378075339804e-03 1.590818860956e-01 0.000000000000e+00
  2.113508144544e-03 2.228685819107e-01 0.000000000000e+00
  2.446671713563e-03 2.861691034371e-01 0.000000000000e+00
  3.423347941948e-03 3.418244478389e-01 0.000000000000e+00
  4.885881993954e-03 3.827338892762e-01 0.000000000000e+00
  6.548581730175e-03 4.034999005172e-01 0.000000000000e+00
  8.104999506500e-03 4.012310275938e-01 0.000000000000e+00
  9.316565373751e-03 3.755782267013e-01 0.000000000000e+00
  1.005343800548e-02 3.284622827368e-01 0.000000000000e+00
  1.028926317191e-02 2.638785013278e-01 0.000000000000e+00
  1.007161404779e-02 1.877816497012e-01 0.000000000000e+00
  9.490459880340e-03 1.077507081457e-01 0.000000000000e+00
  8.654560404896e-03 3.217998818192e-02 0.000000000000e+00
  7.673674973441e-03 -3.093825345789e-02 0.000000000000e+00
  6.641404342168e-03 -7.529487303690e-02 0.000000000000e+00
  5.617802171471e-03 -9.724857270128e-02 0.000000000000e+00
  4.615614086227e-03 -9.635010203331e-02 0.000000000000e+00
  3.594625975695e-03 -7.541212146476e-02 0.000000000000e+00
  2.466287133639e-03 -4.012047076088e-02 0.000000000000e+00
  1.108980915894e-03 1.923002154819e-03 0.000000000000e+00
  -6.059539748159e-04 4.280575146491e-02 0.000000000000e+00
  -2.778336492142e-03 7.634865494961e-02 0.000000000000e+00
  -5.438170164056e-03 9.997862099790e-02 0.000000000000e+00
  -8.510122049843e-03 1.156336201320e-01 0.000000000000e+00
  -1.179754070853e-02 1.291692351266e-01 0.000000000000e+00
  -1.499737934140e-02 1.483754418093e-01 0.000000000000e+00
  -1.774758112145e-02 1.803604138323e-01 0.000000000000e+00
  -1.969534066545e-02 2.293150815609e-01 0.000000000000e+00
  -2.056509943424e-02 2.953960281229e-01 0.000000000000e+00
  -2.020525925422e-02 3.748698681939e-01 0.000000000000e+00
  -1.860297702211e-02 4.611500124831e-01 0.000000000000e+00
  -1.587042440510e-02 5.462072342629e-01 0.000000000000e+00
  -1.221394641236e-02 6.220138064898e-01 0.000000000000e+00
  -7.894902350669e-03 6.819071376018e-01 0.000000000000e+00
  -3.182576678609e-03 7.217786916100e-01 0.000000000000e+00
  1.703659071631e-03 7.408142561676e-01 0.000000000000e+00
  6.656941301311e-03 7.413890390701e-01 0.000000000000e+00
  1.172833664097e-02 7.279095387799e-01 0.000000000000e+00
  1.712423803074e-02 7.048775493915e-01 0.000000000000e+00
  2.313504213236e-02 6.749187096493e-01 0.000000000000e+00
  3.000295058493e-02 6.376183679917e-01 0.000000000000e+00
  3.776924661311e-02 5.896540982469e-01 0.000000000000e+00
  4.615936723503e-02 5.261432398109e-01 0.000000000000e+00
  5.455694206269e-02 4.426699286857e-01 0.000000000000e+00
  6.208858098411e-02 3.372872376078e-01 0.000000000000e+00
  6.780246788269e-02 2.118599036930e-01 0.000000000000e+00
  7.089089844131e-02 7.231685543972e-02 0.000000000000e+00
  0.000000000000e+00 0.000000000000e+00 0.000000000000e+00
  0.000000000000e+00 0.000000000000e+00 0.000000000000e+00
  2.076263591063e-01 -6.754339324513e-02 0.000000000000e+00
  1.982553165858e-01 -1.982553165858e-01 0.000000000000e+00
  1.808257994672e-01 -3.167540998414e-01 0.000000000000e+00
  1.576753197031e-01 -4.176643924018e-01 0.000000000000e+00
  1.316630768816e-01 -4.989120810585e-01 0.000000000000e+00
  1.055780968887e-01 -5.616442041563e-01 0.000000000000e+00
  8.160963236629e-02 -6.092758014201e-01 0.000000000000e+00
  6.101388537074e-02 -6.459235266150e-01 0.000000000000e+00
  4.405266165637e-02 -6.746813421427e-01 0.000000000000e+00
  3.019299939330e-02 -6.963318621030e-01 0.000000000000e+00
  1.847258894047e-02 -7.090288442775e-01 0.000000000000e+00
  7.891081109114e-03 -7.091337852422e-01 0.000000000000e+00
  -2.296027178189e-03 -6.928647348762e-01 0.000000000000e+00
  -1.243804705660e-02 -6.580359103963e-01 0.000000000000e+00
  -2.248668743296e-02 -6.051899683623e-01 0.000000000000e+00
  -3.207245957658e-02 -5.378105760415e-01 0.000000000000e+00
  -4.060948030108e-02 -4.617442013528e-01 0.000000000000e+00
  -4.741193465651e-02 -3.841590321615e-01 0.000000000000e+00
  -5.182816274233e-02 -3.122884854567e-01 0.000000000000e+00
  -5.338995102864e-02 -2.520645214557e-01 0.000000000000e+00
  -5.194640175027e-02 -2.067747996785e-01 0.000000000000e+00
  -4.773336076853e-02 -1.760871416788e-01 0.000000000000e+00
  -4.134197305783e-02 -1.559419798644e-01 0.000000000000e+00
  -3.358923966976e-02 -1.396579179766e-01 0.000000000000e+00
  -2.533498212306e-02 -1.200963105134e-01 0.000000000000e+00
  -1.730854667008e-02 -9.215884594539e-02 0.000000000000e+00
  -9.996762570061e-03 -5.463494923505e-02 0.000000000000e+00
  -3.613211989600e-03 -1.067905884634e-02 0.000000000000e+00
  1.862462970539e-03 3.316353819048e-02 0.000000000000e+00
  6.603196897212e-03 6.884492931712e-02 0.000000000000e+00
  1.083944136823e-02 8.883494366655e-02 0.000000000000e+00
  1.477119357709e-02 8.768507107387e-02 0.000000000000e+00
  1.850130505801e-02 6.294047488681e-02 0.000000000000e+00
  2.200038644085e-02 1.548195007255e-02 0.000000000000e+00
  2.510803816911e-02 -5.059209826778e-02 0.000000000000e+00
  2.756559124144e-02 -1.285319818917e-01 0.000000000000e+00
  2.906764596959e-02 -2.099492028611e-01 0.000000000000e+00
  2.932174629780e-02 -2.861182228556e-01 0.000000000000e+00
  2.811668261811e-02 -3.492345522280e-01 0.000000000000e+00
  2.540599882528e-02 -3.933068644228e-01 0.000000000000e+00
  2.139895478237e-02 -4.145991014698e-01 0.000000000000e+00
  1.661937312143e-02 -4.118040402023e-01 0.000000000000e+00
  1.187047628424e-02 -3.861623021355e-01 0.000000000000e+00
  8.063130450267e-03 -3.414931294065e-01 0.000000000000e+00
  5.932243584447e-03 -2.838237193267e-01 0.000000000000e+00
  5.747238786767e-03 -2.203159168148e-01 0.000000000000e+00
  7.161329891128e-03 -1.575694657482e-01 0.000000000000e+00
  9.302994791306e-03 -9.986320335478e-02 0.000000000000e+00
  1.110305304951e-02 -4.810038503180e-02 0.000000000000e+00
  1.172942943417e-02 1.582419555353e-05 0.000000000000e+00
  1.093728837165e-02 4.858513174906e-02 0.000000000000e+00
  9.172892613309e-03 1.014245504888e-01 0.000000000000e+00
  7.382046627802e-03 1.601067589146e-01 0.000000000000e+00
  6.611857245786e-03 2.228784656199e-01 0.000000000000e+00
  7.587980442635e-03 2.848499328987e-01 0.000000000000e+00
  1.045150507623e-02 3.393034174438e-01 0.000000000000e+00
  1.475138376750e-02 3.794925068546e-01 0.000000000000e+00
  1.966012204706e-02 4.001698448532e-01 0.000000000000e+00
  2.428352767056e-02 3.983812597957e-01 0.000000000000e+00
  2.791878535604e-02 3.735811708943e-01 0.000000000000e+00
  3.017579723892e-02 3.274654539876e-01 0.000000000000e+00
  3.096506196532e-02 2.638502401527e-01 0.000000000000e+00
  3.041361076823e-02 1.885790111748e-01 0.000000000000e+00
  2.877323278864e-02 1.091748788036e-01 0.000000000000e+00
  2.635047513667e-02 3.401447464131e-02 0.000000000000e+00
  2.345382346236e-02 -2.889520281779e-02 0.000000000000e+00
  2.034432420483e-02 -7.319615379192e-02 0.000000000000e+00
  1.718755572102e-02 -9.516692129386e-02 0.000000000000e+00
  1.401762607664e-02 -9.425963571224e-02 0.000000000000e+00
  1.072504786788e-02 -7.318902146711e-02 0.000000000000e+00
  7.073271643831e-03 -3.756345569271e-02 0.000000000000e+00
  2.743417502898e-03 5.053147445192e-03 0.000000000000e+00
  -2.593562326983e-03 4.672752089507e-02 0.000000000000e+00
  -9.179823103411e-03 8.118552881317e-02 0.000000000000e+00
  -1.706108778606e-02 1.056828454889e-01 0.000000000000e+00
  -2.599264770348e-02 1.219329074442e-01 0.000000000000e+00
  -3.539893414886e-02 1.355636529185e-01 0.000000000000e+00
  -4.441749263690e-02 1.541994211384e-01 0.000000000000e+00
  -5.203129638705e-02 1.849004400335e-01 0.000000000000e+00
  -5.725729153736e-02 2.319488100540e-01 0.000000000000e+00
  -5.933321297811e-02 2.957079798393e-01 0.000000000000e+00
  -5.784566537227e-02 3.727105286916e-01 0.000000000000e+00
  -5.277118103612e-02 4.566325854170e-01 0.000000000000e+00
  -4.443978285737e-02 5.396607105332e-01 0.000000000000e+00
  -3.345133059391e-02 6.139153999634e-01 0.000000000000e+00
  -2.056660404754e-02 6.728017735202e-01 0.000000000000e+00
  -6.572326488964e-03 7.121774524610e-01 0.000000000000e+00
  7.887537268134e-03 7.310693958094e-01 0.000000000000e+00
  2.249494644431e-02 7.315732080226e-01 0.000000000000e+00
  3.739041164900e-02 7.177585092832e-01 0.000000000000e+00
  5.316573179475e-02 6.938573573528e-01 0.000000000000e+00
  7.065799021140e-02 6.624358391698e-01 0.000000000000e+00
  9.056834151440e-02 6.233229787157e-01 0.000000000000e+00
  1.130220305233e-01 5.737295024858e-01 0.000000000000e+00
  1.372370778840e-01 5.094626675893e-01 0.000000000000e+00
  1.614484406164e-01 4.267415633471e-01 0.000000000000e+00
  1.831504789771e-01 3.239819256642e-01 0.000000000000e+00
  1.996096890969e-01 2.029921186182e-01 0.000000000000e+00
  2.085048334487e-01 6.920106560408e-02 0.000000000000e+00
  0.000000000000e+00 0.000000000000e+00 0.000000000000e+00
  0.000000000000e+00 0.000000000000e+00 0.000000000000e+00
  3.309131567358e-01 -6.144281094891e-02 0.000000000000e+00
  3.167540998414e-01 -1.808257994672e-01 0.000000000000e+00
  2.904176866110e-01 -2.904176866110e-01 0.000000000000e+00
  2.554257109520e-01 -3.858583502091e-01 0.000000000000e+00
  2.160702647009e-01 -4.653504341787e-01 0.000000000000e+00
  1.765140023677e-01 -5.295646087100e-01 0.000000000000e+00
  1.399927019965e-01 -5.808656319728e-01 0.000000000000e+00
  1.083230217209e-01 -6.220682687912e-01 0.000000000000e+00
  8.182675780066e-02 -6.550791123318e-01 0.000000000000e+00
  5.965081656643e-02 -6.798984884166e-01 0.000000000000e+00
  4.033503285443e-02 -6.944260237991e-01 0.000000000000e+00
  2.241284889880e-02 -6.952329139336e-01 0.000000000000e+00
  4.855230432099e-03 -6.790208794308e-01 0.000000000000e+00
  -1.273083340791e-02 -6.441516821232e-01 0.000000000000e+00
  -3.012224921310e-02 -5.916341404538e-01 0.000000000000e+00
  -4.662542764367e-02 -5.252774533758e-01 0.000000000000e+00
  -6.126217273056e-02 -4.511035582071e-01 0.000000000000e+00
  -7.296023263267e-02 -3.762991610497e-01 0.000000000000e+00
  -8.075122344804e-02 -3.079411376674e-01 0.000000000000e+00
  -8.397396035792e-02 -2.516273440489e-01 0.000000000000e+00
  -8.244652339914e-02 -2.101829633225e-01 0.000000000000e+00
  -7.654603770465e-02 -1.827925047110e-01 0.000000000000e+00
  -6.715137712723e-02 -1.650226651204e-01 0.000000000000e+00
  -5.545618224010e-02 -1.500251609959e-01 0.000000000000e+00
  -4.271453276375e-02 -1.307249745171e-01 0.000000000000e+00
  -3.000515757889e-02 -1.022659925795e-01 0.000000000000e+00
  -1.808142595048e-02 -6.376331832941e-02 0.000000000000e+00
  -7.330083880257e-03 -1.868558240262e-02 0.000000000000e+00
  2.179826366025e-03 2.618447654046e-02 0.000000000000e+00
  1.059557234161e-02 6.266751106516e-02 0.000000000000e+00
  1.816124555210e-02 8.321044423763e-02 0.000000000000e+00
  2.510298430257e-02 8.243607954486e-02 0.000000000000e+00
  3.153513284121e-02 5.802720639914e-02 0.000000000000e+00
  3.740275774243e-02 1.102851228184e-02 0.000000000000e+00
  4.247189504459e-02 -5.431544949686e-02 0.000000000000e+00
  4.636659110683e-02 -1.311608797781e-01 0.000000000000e+00
  4.863919243484e-02 -2.110949609983e-01 0.000000000000e+00
  4.886045990796e-02 -2.854478324670e-01 0.000000000000e+00
  4.672896012583e-02 -3.465683790731e-01 0.000000000000e+00
  4.220517074081e-02 -3.887385642791e-01 0.000000000000e+00
  3.565316710734e-02 -4.086083537671e-01 0.000000000000e+00
  2.792642420620e-02 -4.052884631149e-01 0.000000000000e+00
  2.030400006300e-02 -3.803065579519e-01 0.000000000000e+00
  1.421603889164e-02 -3.374535662334e-01 0.000000000000e+00
  1.080133540089e-02 -2.823176917413e-01 0.000000000000e+00
  1.046230199749e-02 -2.212979057664e-01 0.000000000000e+00
  1.263925349550e-02 -1.601785189643e-01 0.000000000000e+00
  1.596016949062e-02 -1.027167306324e-01 0.000000000000e+00
  1.875256860754e-02 -4.983931479768e-02 0.000000000000e+00
  1.971867890452e-02 1.622675081291e-04 0.000000000000e+00
  1.847758621429e-02 5.047192229004e-02 0.000000000000e+00
  1.572604540790e-02 1.040536964748e-01 0.000000000000e+00
  1.294249160912e-02 1.620520125407e-01 0.000000000000e+00
  1.177027584185e-02 2.228756168550e-01 0.000000000000e+00
  1.335994890742e-02 2.822869850270e-01 0.000000000000e+00
  1.795470632528e-02 3.344080828398e-01 0.000000000000e+00
  2.486919613903e-02 3.731734725158e-01 0.000000000000e+00
  3.281573780789e-02 3.936335988244e-01 0.000000000000e+00
  4.038204777649e-02 3.927277898559e-01 0.000000000000e+00
  4.643632418158e-02 3.695451064244e-01 0.000000000000e+00
  5.032554234888e-02 3.253552881510e-01 0.000000000000e+00
  5.186686126918e-02 2.636298221471e-01 0.000000000000e+00
  5.122263436322e-02 1.899951071416e-01 0.000000000000e+00
  4.875706688399e-02 1.118647281975e-01 0.000000000000e+00
  4.492279537547e-02 3.758165434322e-02 0.000000000000e+00
  4.017499438696e-02 -2.481792989752e-02 0.000000000000e+00
  3.489559636000e-02 -6.888452945205e-02 0.000000000000e+00
  2.932548952327e-02 -9.075167032710e-02 0.000000000000e+00
  2.351951789345e-02 -8.969898541239e-02 0.000000000000e+00
  1.733908350017e-02 -6.827665916887e-02 0.000000000000e+00
  1.048538788998e-02 -3.197034615866e-02 0.000000000000e+00
  2.568437457157e-03 1.170684248398e-02 0.000000000000e+00
  -6.791894451057e-03 5.477113759397e-02 0.000000000000e+00
  -1.783599824794e-02 9.077227668741e-02 0.000000000000e+00
  -3.052065487211e-02 1.166620189214e-01 0.000000000000e+00
  -4.439747939796e-02 1.337621184550e-01 0.000000000000e+00
  -5.856515776620e-02 1.473084067214e-01 0.000000000000e+00
  -7.173792980995e-02 1.646459978673e-01 0.000000000000e+00
  -8.243530457000e-02 1.927650418148e-01 0.000000000000e+00
  -8.924759991951e-02 2.361224987725e-01 0.000000000000e+00
  -9.109673228789e-02 2.954593449299e-01 0.000000000000e+00
  -8.741468045544e-02 3.677895641628e-01 0.000000000000e+00
  -7.820270113247e-02 4.472670862868e-01 0.000000000000e+00
  -6.398507793408e-02 5.264771882863e-01 0.000000000000e+00
  -4.569612083328e-02 5.978215128460e-01 0.000000000000e+00
  -2.452449962250e-02 6.548393128805e-01 0.000000000000e+00
  -1.708320095105e-03 6.933294560148e-01 0.000000000000e+00
  2.172936618524e-02 7.120198422181e-01 0.000000000000e+00
  4.526929055150e-02 7.124754280714e-01 0.000000000000e+00
  6.910413495177e-02 6.981259796294e-01 0.000000000000e+00
  9.412803997203e-02 6.726906618405e-01 0.000000000000e+00
  1.216196405252e-01 6.386186757122e-01 0.000000000000e+00
  1.526574335440e-01 5.961919978515e-01 0.000000000000e+00
  1.874463026948e-01 5.436179251903e-01 0.000000000000e+00
  2.248098011404e-01 4.779956990786e-01 0.000000000000e+00
  2.620711477951e-01 3.967358224707e-01 0.000000000000e+00
  2.954194146797e-01 2.989373612953e-01 0.000000000000e+00
  3.206897076398e-01 1.863071799072e-01 0.000000000000e+00
  3.343409208001e-01 6.333964680294e-02 0.000000000000e+00
  0.000000000000e+00 0.000000000000e+00 0.000000000000e+00
  0.000000000000e+00 0.000000000000e+00 0.000000000000e+00
  4.347582223786e-01 -5.334040384183e-02 0.000000000000e+00
  4.176643924018e-01 -1.576753197031e-01 0.000000000000e+00
  3.858583502091e-01 -2.554257109520e-01 0.000000000000e+00
  3.435596107049e-01 -3.435596107049e-01 0.000000000000e+00
  2.958831846266e-01 -4.206173013535e-01 0.000000000000e+00
  2.477484830440e-01 -4.866067776193e-01 0.000000000000e+00
  2.029262889746e-01 -5.424799686228e-01 0.000000000000e+00
  1.634677440400e-01 -5.893257069310e-01 0.000000000000e+00
  1.296432001685e-01 -6.275008664002e-01 0.000000000000e+00
  1.003580212278e-01 -6.560156141733e-01 0.000000000000e+00
  7.386057994147e-02 -6.724956730441e-01 0.000000000000e+00
  4.847835799658e-02 -6.738588587881e-01 0.000000000000e+00
  2.314933285078e-02 -6.575082909638e-01 0.000000000000e+00
  -2.361213584658e-03 -6.225676603148e-01 0.000000000000e+00
  -2.752493810522e-02 -5.706630219364e-01 0.000000000000e+00
  -5.127596674211e-02 -5.059943648257e-01 0.000000000000e+00
  -7.227983458760e-02 -4.347460338249e-01 0.000000000000e+00
  -8.918613260108e-02 -3.640523275164e-01 0.000000000000e+00
  -1.008578845238e-01 -3.007252284626e-01 0.000000000000e+00
  -1.065781191879e-01 -2.499002816797e-01 0.000000000000e+00
  -1.062053006585e-01 -2.138102811799e-01 0.000000000000e+00
  -1.002257248401e-01 -1.910452483666e-01 0.000000000000e+00
  -8.966622775006e-02 -1.767240791322e-01 0.000000000000e+00