# vtk DataFile Version 3.0
Karman Output
ASCII
DATASET RECTILINEAR_GRID
DIMENSIONS 101 101 1
X_COORDINATES 101 float
   0.000000000000e+00   9.900990099010e-03   1.980198019802e-02   2.970297029703e-02   3.960396039604e-02   4.950495049505e-02   5.940594059406e-02   6.930693069307e-02   7.920792079208e-02   8.910891089109e-02   9.900990099010e-02   1.089108910891e-01   1.188118811881e-01   1.287128712871e-01   1.386138613861e-01   1.485148514851e-01   1.584158415842e-01   1.683168316832e-01   1.782178217822e-01   1.881188118812e-01   1.980198019802e-01   2.079207920792e-01   2.178217821782e-01   2.277227722772e-01   2.376237623762e-01   2.475247524752e-01   2.574257425743e-01   2.673267326733e-01   2.772277227723e-01   2.871287128713e-01   2.970297029703e-01   3.069306930693e-01   3.168316831683e-01   3.267326732673e-01   3.366336633663e-01   3.465346534653e-01   3.564356435644e-01   3.663366336634e-01   3.762376237624e-01   3.861386138614e-01   3.960396039604e-01   4.059405940594e-01   4.158415841584e-01   4.257425742574e-01   4.356435643564e-01   4.455445544554e-01   4.554455445545e-01   4.653465346535e-01   4.752475247525e-01   4.851485148515e-01   4.950495049505e-01   5.049504950495e-01   5.148514851485e-01   5.247524752475e-01   5.346534653465e-01   5.445544554455e-01   5.544554455446e-01   5.643564356436e-01   5.742574257426e-01   5.841584158416e-01   5.940594059406e-01   6.039603960396e-01   6.138613861386e-01   6.237623762376e-01   6.336633663366e-01   6.435643564356e-01   6.534653465347e-01   6.633663366337e-01   6.732673267327e-01   6.831683168317e-01   6.930693069307e-01   7.029702970297e-01   7.128712871287e-01   7.227722772277e-01   7.326732673267e-01   7.425742574257e-01   7.524752475248e-01   7.623762376238e-01   7.722772277228e-01   7.821782178218e-01   7.920792079208e-01   8.019801980198e-01   8.118811881188e-01   8.217821782178e-01   8.316831683168e-01   8.415841584158e-01   8.514851485149e-01   8.613861386139e-01   8.712871287129e-01   8.811881188119e-01   8.910891089109e-01   9.009900990099e-01   9.108910891089e-01   9.207920792079e-01   9.306930693069e-01   9.405940594059e-01   9.504950495050e-01   9.603960396040e-01   9.702970297030e-01   9.801980198020e-01   9.900990099010e-01
Y_COORDINATES 101 float
   0.000000000000e+00   9.900990099010e-03   1.980198019802e-02   2.970297029703e-02   3.960396039604e-02   4.950495049505e-02   5.940594059406e-02   6.930693069307e-02   7.920792079208e-02   8.910891089109e-02   9.900990099010e-02   1.089108910891e-01   1.188118811881e-01   1.287128712871e-01   1.386138613861e-01   1.485148514851e-01   1.584158415842e-01   1.683168316832e-01   1.782178217822e-01   1.881188118812e-01   1.980198019802e-01   2.079207920792e-01   2.178217821782e-01   2.277227722772e-01   2.376237623762e-01   2.475247524752e-01   2.574257425743e-01   2.673267326733e-01   2.772277227723e-01   2.871287128713e-01   2.970297029703e-01   3.069306930693e-01   3.168316831683e-01   3.267326732673e-01   3.366336633663e-01   3.465346534653e-01   3.564356435644e-01   3.663366336634e-01   3.762376237624e-01   3.861386138614e-01   3.960396039604e-01   4.059405940594e-01   4.158415841584e-01   4.257425742574e-01   4.356435643564e-01   4.455445544554e-01   4.554455445545e-01   4.653465346535e-01   4.752475247525e-01   4.851485148515e-01   4.950495049505e-01   5.049504950495e-01   5.148514851485e-01   5.247524752475e-01   5.346534653465e-01   5.445544554455e-01   5.544554455446e-01   5.643564356436e-01   5.742574257426e-01   5.841584158416e-01   5.940594059406e-01   6.039603960396e-01   6.138613861386e-01   6.237623762376e-01   6.336633663366e-01   6.435643564356e-01   6.534653465347e-01   6.633663366337e-01   6.732673267327e-01   6.831683168317e-01   6.930693069307e-01   7.029702970297e-01   7.128712871287e-01   7.227722772277e-01   7.326732673267e-01   7.425742574257e-01   7.524752475248e-01   7.623762376238e-01   7.722772277228e-01   7.821782178218e-01   7.920792079208e-01   8.019801980198e-01   8.118811881188e-01   8.217821782178e-01   8.316831683168e-01   8.415841584158e-01   8.514851485149e-01   8.613861386139e-01   8.712871287129e-01   8.811881188119e-01   8.910891089109e-01   9.009900990099e-01   9.108910891089e-01   9.207920792079e-01   9.306930693069e-01   9.405940594059e-01   9.504950495050e-01   9.603960396040e-01   9.702970297030e-01   9.801980198020e-01   9.900990099010e-01
Z_COORDINATES 1 float
  0.000000000000e+00
POINT_DATA 10201
VECTORS E_field float
  0.000000000000e+00 0.000000000000e+00 0.000000000000e+00
  0.000000000000e+00 0.000000000000e+00 0.000000000000e+00
  0.000000000000e+00 0.000000000000e+00 0.000000000000e+00
  0.000000000000e+00 0.000000000000e+00 0.000000000000e+00
  0.000000000000e+00 0.000000000000e+00 0.000000000000e+00
  0.000000000000e+00 0.000000000000e+00 0.000000000000e+00
  0.000000000000e+00 0.000000000000e+00 0.000000000000e+00
  0.000000000000e+00 0.000000000000e+00 0.000000000000e+00
  0.000000000000e+00 0.000000000000e+00 0.000000000000e+00
  0.000000000000e+00 0.000000000000e+00 0.000000000000e+00
  0.000000000000e+00 0.000000000000e+00 0.000000000000e+00
  0.000000000000e+00 0.000000000000e+00 0.000000000000e+00
  0.000000000000e+00 0.000000000000e+00 0.000000000000e+00
  0.000000000000e+00 0.000000000000e+00 0.000000000000e+00
  0.000000000000e+00 0.000000000000e+00 0.000000000000e+00
  0.000000000000e+00 0.000000000000e+00 0.000000000000e+00
  0.000000000000e+00 0.000000000000e+00 0.000000000000e+00
  0.000000000000e+00 0.000000000000e+00 0.000000000000e+00
  0.000000000000e+00 0.000000000000e+00 0.000000000000e+00
  0.000000000000e+00 0.000000000000e+00 0.000000000000e+00
  0.000000000000e+00 0.000000000000e+00 0.000000000000e+00
  0.000000000000e+00 0.000000000000e+00 0.000000000000e+00
  0.000000000000e+00 0.000000000000e+00 0.000000000000e+00
  0.000000000000e+00 0.000000000000e+00 0.000000000000e+00
  0.000000000000e+00 0.000000000000e+00 0.000000000000e+00
  0.000000000000e+00 0.000000000000e+00 0.000000000000e+00
  0.000000000000e+00 0.000000000000e+00 0.000000000000e+00
  0.000000000000e+00 0.000000000000e+00 0.000000000000e+00
  0.000000000000e+00 0.000000000000e+00 0.000000000000e+00
  0.000000000000e+00 0.000000000000e+00 0.000000000000e+00
  0.000000000000e+00 0.000000000000e+00 0.000000000000e+00
  0.000000000000e+00 0.000000000000e+00 0.000000000000e+00
  0.000000000000e+00 0.000000000000e+00 0.000000000000e+00
  0.000000000000e+00 0.000000000000e+00 0.000000000000e+00
  0.000000000000e+00 0.000000000000e+00 0.000000000000e+00
  0.000000000000e+00 0.000000000000e+00 0.000000000000e+00
  0.000000000000e+00 0.000000000000e+00 0.000000000000e+00
  0.000000000000e+00 0.000000000000e+00 0.000000000000e+00
  0.000000000000e+00 0.000000000000e+00 0.000000000000e+00
  0.000000000000e+00 0.000000000000e+00 0.000000000000e+00
  0.000000000000e+00 0.000000000000e+00 0.000000000000e+00
  0.000000000000e+00 0.000000000000e+00 0.000000000000e+00
  0.000000000000e+00 0.000000000000e+00 0.000000000000e+00
  0.000000000000e+00 0.000000000000e+00 0.000000000000e+00
  0.000000000000e+00 0.000000000000e+00 0.000000000000e+00
  0.000000000000e+00 0.000000000000e+00 0.000000000000e+00
  0.000000000000e+00 0.000000000000e+00 0.000000000000e+00
  0.000000000000e+00 0.000000000000e+00 0.000000000000e+00
  0.000000000000e+00 0.000000000000e+00 0.000000000000e+00
  0.000000000000e+00 0.000000000000e+00 0.000000000000e+00
  0.000000000000e+00 0.000000000000e+00 0.000000000000e+00
  0.000000000000e+00 0.000000000000e+00 0.000000000000e+00
  0.000000000000e+00 0.000000000000e+00 0.000000000000e+00
  0.000000000000e+00 0.000000000000e+00 0.000000000000e+00
  0.000000000000e+00 0.000000000000e+00 0.000000000000e+00
  0.000000000000e+00 0.000000000000e+00 0.000000000000e+00
  0.000000000000e+00 0.000000000000e+00 0.000000000000e+00
  0.000000000000e+00 0.000000000000e+00 0.000000000000e+00
  0.000000000000e+00 0.000000000000e+00 0.000000000000e+00
  0.000000000000e+00 0.000000000000e+00 0.000000000000e+00
  0.000000000000e+00 0.000000000000e+00 0.000000000000e+00
  0.000000000000e+00 0.000000000000e+00 0.000000000000e+00
  0.000000000000e+00 0.000000000000e+00 0.000000000000e+00
  0.000000000000e+00 0.000000000000e+00 0.000000000000e+00
  0.000000000000e+00 0.000000000000e+00 0.000000000000e+00
  0.000000000000e+00 0.000000000000e+00 0.000000000000e+00
  0.000000000000e+00 0.000000000000e+00 0.000000000000e+00
  0.000000000000e+00 0.000000000000e+00 0.000000000000e+00
  0.000000000000e+00 0.000000000000e+00 0.000000000000e+00
  0.000000000000e+00 0.000000000000e+00 0.000000000000e+00
  0.000000000000e+00 0.000000000000e+00 0.000000000000e+00
  0.000000000000e+00 0.000000000000e+00 0.000000000000e+00
  0.000000000000e+00 0.000000000000e+00 0.000000000000e+00
  0.000000000000e+00 0.000000000000e+00 0.000000000000e+00
  0.000000000000e+00 0.000000000000e+00 0.000000000000e+00
  0.000000000000e+00 0.000000000000e+00 0.000000000000e+00
  0.000000000000e+00 0.000000000000e+00 0.000000000000e+00
  0.000000000000e+00 0.000000000000e+00 0.000000000000e+00
  0.000000000000e+00 0.000000000000e+00 0.000000000000e+00
  0.000000000000e+00 0.000000000000e+00 0.000000000000e+00
  0.000000000000e+00 0.000000000000e+00 0.000000000000e+00
  0.000000000000e+00 0.000000000000e+00 0.000000000000e+00
  0.000000000000e+00 0.000000000000e+00 0.000000000000e+00
  0.000000000000e+00 0.000000000000e+00 0.000000000000e+00
  0.000000000000e+00 0.000000000000e+00 0.000000000000e+00
  0.000000000000e+00 0.000000000000e+00 0.000000000000e+00
  0.000000000000e+00 0.000000000000e+00 0.000000000000e+00
  0.000000000000e+00 0.000000000000e+00 0.000000000000e+00
  0.000000000000e+00 0.000000000000e+00 0.000000000000e+00
  0.000000000000e+00 0.000000000000e+00 0.000000000000e+00
  0.000000000000e+00 0.000000000000e+00 0.000000000000e+00
  0.000000000000e+00 0.000000000000e+00 0.000000000000e+00
  0.000000000000e+00 0.000000000000e+00 0.000000000000e+00
  0.000000000000e+00 0.000000000000e+00 0.000000000000e+00
  0.000000000000e+00 0.000000000000e+00 0.000000000000e+00
  0.000000000000e+00 0.000000000000e+00 0.000000000000e+00
  0.000000000000e+00 0.000000000000e+00 0.000000000000e+00
  0.000000000000e+00 0.000000000000e+00 0.000000000000e+00
  0.000000000000e+00 0.000000000000e+00 0.000000000000e+00
  0.000000000000e+00 0.000000000000e+00 0.000000000000e+00
  0.000000000000e+00 0.000000000000e+00 0.000000000000e+00
  0.000000000000e+00 0.000000000000e+00 0.000000000000e+00
  -2.257101997270e-04 2.257101997272e-04 0.000000000000e+00
  -6.226486723938e-04 3.005869152328e-04 0.000000000000e+00
  -1.204108817940e-03 -9.848382575126e-04 0.000000000000e+00
  -1.619293673234e-03 -4.975577615649e-03 0.000000000000e+00
  -1.495726201526e-03 -1.282188142233e-02 0.000000000000e+00
  -5.536266699167e-04 -2.452810911774e-02 0.000000000000e+00
  1.317930920605e-03 -3.832437149752e-02 0.000000000000e+00
  4.037064817414e-03 -5.093067722632e-02 0.000000000000e+00
  7.351672473504e-03 -5.870117374570e-02 0.000000000000e+00
  1.089405730773e-02 -5.908518001587e-02 0.000000000000e+00
  1.425302275042e-02 -5.169245686956e-02 0.000000000000e+00
  1.705051218016e-02 -3.851242146936e-02 0.000000000000e+00
  1.900943919200e-02 -2.324595764791e-02 0.000000000000e+00
  1.999920868770e-02 -1.000816520173e-02 0.000000000000e+00
  2.004996523989e-02 -1.791977253352e-03 0.000000000000e+00
  1.933612640742e-02 8.620525564039e-04 0.000000000000e+00
  1.813900439641e-02 5.024241845304e-04 0.000000000000e+00
  1.680109730665e-02 2.271221040532e-03 0.000000000000e+00
  1.567980858955e-02 1.212515288073e-02 0.000000000000e+00
  1.510114999094e-02 3.417454920139e-02 0.000000000000e+00
  1.531131737510e-02 6.813714863441e-02 0.000000000000e+00
  1.642850317388e-02 1.081517956744e-01 0.000000000000e+00
  1.840531975707e-02 1.438119805188e-01 0.000000000000e+00
  2.101717818050e-02 1.633311808668e-01 0.000000000000e+00
  2.388911400088e-02 1.576901327492e-01 0.000000000000e+00
  2.656249031265e-02 1.240214925090e-01 0.000000000000e+00
  2.858768173435e-02 6.672726043920e-02 0.000000000000e+00
  2.961612646275e-02 -4.171348531078e-03 0.000000000000e+00
  2.946235221688e-02 -7.667278820118e-02 0.000000000000e+00
  2.811743016685e-02 -1.407532585335e-01 0.000000000000e+00
  2.571588136708e-02 -1.909473744607e-01 0.000000000000e+00
  2.247722699872e-02 -2.266863161328e-01 0.000000000000e+00
  1.864963318647e-02 -2.507086984698e-01 0.000000000000e+00
  1.447350845683e-02 -2.666903584219e-01 0.000000000000e+00
  1.016595524385e-02 -2.773027316972e-01 0.000000000000e+00
  5.915724450894e-03 -2.833328573713e-01 0.000000000000e+00
  1.879466622871e-03 -2.837966872571e-01 0.000000000000e+00
  -1.821106436020e-03 -2.766175568881e-01 0.000000000000e+00
  -5.095779923084e-03 -2.595071069766e-01 0.000000000000e+00
  -7.874368762550e-03 -2.309085003348e-01 0.000000000000e+00
  -1.009467246806e-02 -1.909316526865e-01 0.000000000000e+00
  -1.170206241483e-02 -1.420606587202e-01 0.000000000000e+00
  -1.266666406600e-02 -8.925087850484e-02 0.000000000000e+00
  -1.301024341625e-02 -3.912230429085e-02 0.000000000000e+00
  -1.282454393226e-02 1.642308888145e-03 0.000000000000e+00
  -1.226537441068e-02 2.810864391967e-02 0.000000000000e+00
  -1.152147194081e-02 3.834095495958e-02 0.000000000000e+00
  -1.077305252429e-02 3.361716038884e-02 0.000000000000e+00
  -1.015967640694e-02 1.772587151173e-02 0.000000000000e+00
  -9.767411387278e-03 -4.090897901290e-03 0.000000000000e+00
  -9.630040288181e-03 -2.601047749408e-02 0.000000000000e+00
  -9.731351064532e-03 -4.220318114832e-02 0.000000000000e+00
  -1.000142363361e-02 -4.740331525645e-02 0.000000000000e+00
  -1.031305623929e-02 -3.778534196251e-02 0.000000000000e+00
  -1.049213206578e-02 -1.205097270735e-02 0.000000000000e+00
  -1.034969673894e-02 2.781046964307e-02 0.000000000000e+00
  -9.727827486239e-03 7.668543171832e-02 0.000000000000e+00
  -8.538933723920e-03 1.275920140491e-01 0.000000000000e+00
  -6.779695792020e-03 1.735853242781e-01 0.000000000000e+00
  -4.515851549591e-03 2.095194706486e-01 0.000000000000e+00
  -1.851108308936e-03 2.330077375716e-01 0.000000000000e+00
  1.100059923250e-03 2.443915761824e-01 0.000000000000e+00
  4.223810786999e-03 2.459746065518e-01 0.000000000000e+00
  7.405151812670e-03 2.409341073094e-01 0.000000000000e+00
  1.052473411054e-02 2.322031774412e-01 0.000000000000e+00
  1.346323425393e-02 2.214579794876e-01 0.000000000000e+00
  1.611192164058e-02 2.083651837331e-01 0.000000000000e+00
  1.838057059767e-02 1.904221430249e-01 0.000000000000e+00
  2.019669718181e-02 1.637843540272e-01 0.000000000000e+00
  2.150032816293e-02 1.251524511416e-01 0.000000000000e+00
  2.224576413005e-02 7.413071371078e-02 0.000000000000e+00
  2.241798511390e-02 1.489774884797e-02 0.000000000000e+00
  2.205850332356e-02 -4.394405838857e-02 0.000000000000e+00
  2.128416271983e-02 -9.169502804896e-02 0.000000000000e+00
  2.028233548801e-02 -1.192661951292e-01 0.000000000000e+00
  1.927785462257e-02 -1.226388273846e-01 0.000000000000e+00
  1.848262099650e-02 -1.044447240771e-01 0.000000000000e+00
  1.804807669375e-02 -7.289657838717e-02 0.000000000000e+00
  1.803874538204e-02 -3.855511701053e-02 0.000000000000e+00
  1.843389331967e-02 -1.041165914904e-02 0.000000000000e+00
  1.915053153762e-02 7.003449123142e-03 0.000000000000e+00
  2.007167732169e-02 1.437907433696e-02 0.000000000000e+00
  2.106399326188e-02 1.621279669247e-02 0.000000000000e+00
  2.197885529902e-02 1.815194379116e-02 0.000000000000e+00
  2.264489437806e-02 2.438447758013e-02 0.000000000000e+00
  2.286888139297e-02 3.609430150072e-02 0.000000000000e+00
  2.245870053840e-02 5.133722079770e-02 0.000000000000e+00
  2.126829523721e-02 6.607627551580e-02 0.000000000000e+00
  1.924891521776e-02 7.580112878039e-02 0.000000000000e+00
  1.648401956036e-02 7.714406119375e-02 0.000000000000e+00
  1.319070034031e-02 6.903476995140e-02 0.000000000000e+00
  9.683946729661e-03 5.308307971066e-02 0.000000000000e+00
  6.313265414458e-03 3.305466365000e-02 0.000000000000e+00
  3.388837616029e-03 1.358151125953e-02 0.000000000000e+00
  1.116531277090e-03 -1.409425648726e-03 0.000000000000e+00
  -4.401498875061e-04 -9.866699950962e-03 0.000000000000e+00
  -1.357646193194e-03 -1.187086651175e-02 0.000000000000e+00
  -1.805974284352e-03 -8.990246242570e-03 0.000000000000e+00
  -1.970642137728e-03 -3.293112732545e-03 0.000000000000e+00
  0.000000000000e+00 0.000000000000e+00 0.000000000000e+00
  0.000000000000e+00 0.000000000000e+00 0.000000000000e+00
  -3.005869152325e-04 6.226486723940e-04 0.000000000000e+00
  -1.274227273244e-03 1.274227273244e-03 0.000000000000e+00
  -2.643218586202e-03 -8.027157019613e-06 0.000000000000e+00
  -3.454265487208e-03 -4.726156959842e-03 0.000000000000e+00
  -2.699049241114e-03 -1.395008579593e-02 0.000000000000e+00
  3.728955290818e-04 -2.741394904594e-02 0.000000000000e+00
  6.046547160413e-03 -4.298374079118e-02 0.000000000000e+00
  1.407638081809e-02 -5.702027548715e-02 0.000000000000e+00
  2.374765508928e-02 -6.559745741215e-02 0.000000000000e+00
  3.402452706154e-02 -6.600815315590e-02 0.000000000000e+00
  4.374657720496e-02 -5.785049931563e-02 0.000000000000e+00
  5.184030005792e-02 -4.324559130599e-02 0.000000000000e+00
  5.751010080502e-02 -2.614151557023e-02 0.000000000000e+00
  6.037121658044e-02 -1.096349255055e-02 0.000000000000e+00
  6.049771208934e-02 -1.013901965617e-03 0.000000000000e+00
  5.838396248926e-02 2.911565701215e-03 0.000000000000e+00
  5.484371553515e-02 3.190280004841e-03 0.000000000000e+00
  5.087971659672e-02 4.885271248404e-03 0.000000000000e+00
  4.754544103799e-02 1.396666694869e-02 0.000000000000e+00
  4.580260864618e-02 3.465452612384e-02 0.000000000000e+00
  4.637240042644e-02 6.687721254754e-02 0.000000000000e+00
  4.959126198218e-02 1.050756844068e-01 0.000000000000e+00
  5.530349608790e-02 1.391990410975e-01 0.000000000000e+00
  6.283444788100e-02 1.578013100716e-01 0.000000000000e+00
  7.107746751816e-02 1.521050480869e-01 0.000000000000e+00
  7.869494654203e-02 1.193157218356e-01 0.000000000000e+00
  8.439027402374e-02 6.371251220913e-02 0.000000000000e+00
  8.717284515512e-02 -4.967616160797e-03 0.000000000000e+00
  8.653232566287e-02 -7.508222683332e-02 0.000000000000e+00
  8.247086241930e-02 -1.369374346077e-01 0.000000000000e+00
  7.540117311789e-02 -1.852919602852e-01 0.000000000000e+00
  6.597278515161e-02 -2.196746879735e-01 0.000000000000e+00
  5.490584451716e-02 -2.428257921821e-01 0.000000000000e+00
  4.288406482865e-02 -2.583753602907e-01 0.000000000000e+00
  3.050994209706e-02 -2.689360538823e-01 0.000000000000e+00
  1.829325822975e-02 -2.752326205231e-01 0.000000000000e+00
  6.646673442675e-03 -2.762140814852e-01 0.000000000000e+00
  -4.113784245173e-03 -2.697391319049e-01 0.000000000000e+00
  -1.375040398630e-02 -2.534742387185e-01 0.000000000000e+00
  -2.206557058160e-02 -2.258476131387e-01 0.000000000000e+00
  -2.886687849147e-02 -1.869709282396e-01 0.000000000000e+00
  -3.397038109611e-02 -1.393104905784e-01 0.000000000000e+00
  -3.725689959993e-02 -8.774992644385e-02 0.000000000000e+00
  -3.875589423752e-02 -3.878068230574e-02 0.000000000000e+00
  -3.870249422588e-02 1.061587474390e-03 0.000000000000e+00
  -3.752217613494e-02 2.694987779330e-02 0.000000000000e+00
  -3.574104489977e-02 3.697468745384e-02 0.000000000000e+00
  -3.386557301250e-02 3.235953665831e-02 0.000000000000e+00
  -3.228884616488e-02 1.679339233305e-02 0.000000000000e+00
  -3.125233431140e-02 -4.587195557463e-03 0.000000000000e+00
  -3.084843014450e-02 -2.605545508724e-02 0.000000000000e+00
  -3.102694223610e-02 -4.187838069405e-02 0.000000000000e+00
  -3.158544367286e-02 -4.689954173445e-02 0.000000000000e+00
  -3.216095137401e-02 -3.740197522671e-02 0.000000000000e+00
  -3.226202394338e-02 -1.215419111063e-02 0.000000000000e+00
  -3.136291416776e-02 2.687214287245e-02 0.000000000000e+00
  -2.903635667844e-02 7.467533167360e-02 0.000000000000e+00
  -2.506578723552e-02 1.244426508188e-01 0.000000000000e+00
  -1.948227045307e-02 1.693919327318e-01 0.000000000000e+00
  -1.251490619596e-02 2.044816536430e-01 0.000000000000e+00
  -4.493568933460e-03 2.273594740324e-01 0.000000000000e+00
  4.237178287199e-03 2.383579242373e-01 0.000000000000e+00
  1.335585479896e-02 2.397658310987e-01 0.000000000000e+00
  2.255862408712e-02 2.347587724331e-01 0.000000000000e+00
  3.154376401735e-02 2.262737900793e-01 0.000000000000e+00
  4.001356783674e-02 2.159790628804e-01 0.000000000000e+00
  4.769292102832e-02 2.035160597583e-01 0.000000000000e+00
  5.434267948504e-02 1.863528595838e-01 0.000000000000e+00
  5.975299128637e-02 1.606271990817e-01 0.000000000000e+00
  6.372939613059e-02 1.230295702612e-01 0.000000000000e+00
  6.610391375140e-02 7.313364100299e-02 0.000000000000e+00
  6.679153419089e-02 1.503498013229e-02 0.000000000000e+00
  6.587525955574e-02 -4.280553324746e-02 0.000000000000e+00
  6.367014630920e-02 -8.985409933983e-02 0.000000000000e+00
  6.071647567488e-02 -1.171516259722e-01 0.000000000000e+00
  5.768647933432e-02 -1.207189193356e-01 0.000000000000e+00
  5.523473171166e-02 -1.031176508774e-01 0.000000000000e+00
  5.385062016126e-02 -7.240499573375e-02 0.000000000000e+00
  5.376773408399e-02 -3.895448227499e-02 0.000000000000e+00
  5.495471762237e-02 -1.159442536058e-02 0.000000000000e+00
  5.717279253183e-02 5.251502207268e-03 0.000000000000e+00
  6.005703932501e-02 1.232562867558e-02 0.000000000000e+00
  6.317618897747e-02 1.415477676121e-02 0.000000000000e+00
  6.605080830297e-02 1.642048235978e-02 0.000000000000e+00
  6.814747787371e-02 2.335323036174e-02 0.000000000000e+00
  6.889156948789e-02 3.615747009002e-02 0.000000000000e+00
  6.773443140310e-02 5.284137114774e-02 0.000000000000e+00
  6.427485418721e-02 6.922210768284e-02 0.000000000000e+00
  5.839382224887e-02 8.055570857114e-02 0.000000000000e+00
  5.034342815715e-02 8.320477115211e-02 0.000000000000e+00
  4.074575909256e-02 7.586504827768e-02 0.000000000000e+00
  3.049309414168e-02 6.001221994590e-02 0.000000000000e+00
  2.057495256735e-02 3.941434630429e-02 0.000000000000e+00
  1.187699979743e-02 1.884420917359e-02 0.000000000000e+00
  5.002514457168e-03 2.474668116417e-03 0.000000000000e+00
  1.650831733236e-04 -7.356681267665e-03 0.000000000000e+00
  -2.809328112263e-03 -1.048897760377e-02 0.000000000000e+00
  -4.359232453739e-03 -8.373902717913e-03 0.000000000000e+00
  -4.975322641623e-03 -3.128698215941e-03 0.000000000000e+00
  0.000000000000e+00 0.000000000000e+00 0.000000000000e+00
  0.000000000000e+00 0.000000000000e+00 0.000000000000e+00
  9.848382575127e-04 1.204108817939e-03 0.000000000000e+00
  8.027157019568e-06 2.643218586202e-03 0.000000000000e+00
  -1.159299563910e-03 1.159299563909e-03 0.000000000000e+00
  -1.227588648870e-03 -5.014147694805e-03 0.000000000000e+00
  1.152408128336e-03 -1.679730808427e-02 0.000000000000e+00
  6.959449853366e-03 -3.344571325283e-02 0.000000000000e+00
  1.652032965725e-02 -5.218650801951e-02 0.000000000000e+00
  2.942509336174e-02 -6.875210562099e-02 0.000000000000e+00
  4.461235537283e-02 -7.872416356060e-02 0.000000000000e+00
  6.056952259740e-02 -7.911548620428e-02 0.000000000000e+00
  7.559906776093e-02 -6.949476157420e-02 0.000000000000e+00
  8.811153965533e-02 -5.220752379478e-02 0.000000000000e+00
  9.690149208848e-02 -3.163933626169e-02 0.000000000000e+00
  1.013542258127e-01 -1.277952135874e-02 0.000000000000e+00
  1.015400270780e-01 4.898300684258e-04 0.000000000000e+00
  9.818382975003e-02 6.877780595186e-03 0.000000000000e+00
  9.253387183946e-02 8.414269975554e-03 0.000000000000e+00
  8.616882468892e-02 9.990327366657e-03 0.000000000000e+00
  8.077285673850e-02 1.759185433959e-02 0.000000000000e+00
  7.788991512365e-02 3.565511273961e-02 0.000000000000e+00
  7.866618087277e-02 6.453056840238e-02 0.000000000000e+00
  8.361033677510e-02 9.925931109385e-02 0.000000000000e+00
  9.242895965985e-02 1.304845574200e-01 0.000000000000e+00
  1.040038744514e-01 1.474099271645e-01 0.000000000000e+00
  1.165544273236e-01 1.417028584845e-01 0.000000000000e+00
  1.279736245342e-01 1.106812352036e-01 0.000000000000e+00
  1.362621251502e-01 5.836317074353e-02 0.000000000000e+00
  1.399363791831e-01 -6.075099859392e-03 0.000000000000e+00
  1.382843765364e-01 -7.168222099571e-02 0.000000000000e+00
  1.313961973336e-01 -1.293877979987e-01 0.000000000000e+00
  1.199876358720e-01 -1.743633461306e-01 0.000000000000e+00
  1.051161479284e-01 -2.063034262167e-01 0.000000000000e+00
  8.791227683608e-02 -2.279262422092e-01 0.000000000000e+00
  6.940654813564e-02 -2.427474018689e-01 0.000000000000e+00
  5.045884253727e-02 -2.532421839635e-01 0.000000000000e+00
  3.174891048278e-02 -2.599998745011e-01 0.000000000000e+00
  1.378914101725e-02 -2.618404732221e-01 0.000000000000e+00
  -3.047097489154e-03 -2.565160439210e-01 0.000000000000e+00
  -1.846985166175e-02 -2.416379527070e-01 0.000000000000e+00
  -3.219613356709e-02 -2.156424505288e-01 0.000000000000e+00
  -4.389435473366e-02 -1.786765616030e-01 0.000000000000e+00
  -5.320226851143e-02 -1.331934406046e-01 0.000000000000e+00
  -5.983446562809e-02 -8.394826050654e-02 0.000000000000e+00
  -6.373156316292e-02 -3.718625571917e-02 0.000000000000e+00
  -6.516161608252e-02 8.438141978007e-04 0.000000000000e+00
  -6.470266971034e-02 2.552838703950e-02 0.000000000000e+00
  -6.310547033289e-02 3.501784802968e-02 0.000000000000e+00
  -6.110641144886e-02 3.044184571274e-02 0.000000000000e+00
  -5.927998266583e-02 1.530792797956e-02 0.000000000000e+00
  -5.797621090164e-02 -5.442014593306e-03 0.000000000000e+00
  -5.732166696575e-02 -2.625908405339e-02 0.000000000000e+00
  -5.722913681145e-02 -4.158876982839e-02 0.000000000000e+00
  -5.738604057305e-02 -4.647374757399e-02 0.000000000000e+00
  -5.724773788858e-02 -3.739056465859e-02 0.000000000000e+00
  -5.609365190705e-02 -1.321861546509e-02 0.000000000000e+00
  -5.317705356684e-02 2.412085868680e-02 0.000000000000e+00
  -4.793057643955e-02 6.985358080481e-02 0.000000000000e+00
  -4.013480674461e-02 1.174980621305e-01 0.000000000000e+00
  -2.996420413153e-02 1.605824016480e-01 0.000000000000e+00
  -1.789238946055e-02 1.942520054795e-01 0.000000000000e+00
  -4.518645475116e-03 2.161940406916e-01 0.000000000000e+00
  9.587831206354e-03 2.266861334804e-01 0.000000000000e+00
  2.396015192228e-02 2.279466244860e-01 0.000000000000e+00
  3.822286209881e-02 2.231124994830e-01 0.000000000000e+00
  5.204693154051e-02 2.151108535928e-01 0.000000000000e+00
  6.511823367019e-02 2.056008933772e-01 0.000000000000e+00
  7.712899379312e-02 1.942041159226e-01 0.000000000000e+00
  8.776994114226e-02 1.783740975997e-01 0.000000000000e+00
  9.670786043864e-02 1.542577299606e-01 0.000000000000e+00
  1.035699309486e-01 1.185605640242e-01 0.000000000000e+00
  1.079811229642e-01 7.081693760156e-02 0.000000000000e+00
  1.096803838032e-01 1.496480225431e-02 0.000000000000e+00
  1.086836308576e-01 -4.082232778913e-02 0.000000000000e+00
  1.054113591520e-01 -8.635991984615e-02 0.000000000000e+00
  1.006979805122e-01 -1.129787561919e-01 0.000000000000e+00
  9.565300707005e-02 -1.168168193333e-01 0.000000000000e+00
  9.141660092803e-02 -1.003315971150e-01 0.000000000000e+00
  8.890030844711e-02 -7.129064546481e-02 0.000000000000e+00
  8.860465878004e-02 -3.969029679960e-02 0.000000000000e+00
  9.056403762964e-02 -1.400497322394e-02 0.000000000000e+00
  9.441015232385e-02 1.597860466963e-03 0.000000000000e+00
  9.949804173947e-02 8.007134207081e-03 0.000000000000e+00
  1.050260990000e-01 9.826064316747e-03 0.000000000000e+00
  1.101097009502e-01 1.279097352849e-02 0.000000000000e+00
  1.138183845098e-01 2.117738606271e-02 0.000000000000e+00
  1.152241085299e-01 3.618349875474e-02 0.000000000000e+00
  1.135048352187e-01 5.569175387901e-02 0.000000000000e+00
  1.081048386363e-01 7.523129874986e-02 0.000000000000e+00
  9.890220459860e-02 8.963018348020e-02 0.000000000000e+00
  8.631154918205e-02 9.477134575132e-02 0.000000000000e+00
  7.126930343245e-02 8.893838849268e-02 0.000000000000e+00
  5.509303695728e-02 7.336781115695e-02 0.000000000000e+00
  3.924707383122e-02 5.182285979363e-02 0.000000000000e+00
  2.506905963809e-02 2.931166264731e-02 0.000000000000e+00
  1.352038023619e-02 1.043037938486e-02 0.000000000000e+00
  5.025762179709e-03 -1.980343195786e-03 0.000000000000e+00
  -5.404976630145e-04 -7.324644547344e-03 0.000000000000e+00
  -3.697547718982e-03 -6.831281376900e-03 0.000000000000e+00
  -5.069063001340e-03 -2.683714086713e-03 0.000000000000e+00
  0.000000000000e+00 0.000000000000e+00 0.000000000000e+00
  0.000000000000e+00 0.000000000000e+00 0.000000000000e+00
  4.975577615649e-03 1.619293673233e-03 0.000000000000e+00
  4.726156959842e-03 3.454265487208e-03 0.000000000000e+00
  5.014147694805e-03 1.227588648869e-03 0.000000000000e+00
  7.112968134420e-03 -7.112968134419e-03 0.000000000000e+00
  1.231765741099e-02 -2.228317369843e-02 0.000000000000e+00
  2.150457308053e-02 -4.295380503324e-02 0.000000000000e+00
  3.485687224789e-02 -6.559159521035e-02 0.000000000000e+00
  5.179615251896e-02 -8.519106240569e-02 0.000000000000e+00
  7.107999116056e-02 -9.675630742857e-02 0.000000000000e+00
  9.100239958862e-02 -9.696291798893e-02 0.000000000000e+00
  1.096532299958e-01 -8.532770536023e-02 0.000000000000e+00
  1.252115736273e-01 -6.444539553475e-02 0.000000000000e+00
  1.362428410795e-01 -3.922268440702e-02 0.000000000000e+00
  1.419503425115e-01 -1.535640836970e-02 0.000000000000e+00
  1.423273018502e-01 2.503956475441e-03 0.000000000000e+00
  1.381771244398e-01 1.237002892650e-02 0.000000000000e+00
  1.310041062913e-01 1.574499770339e-02 0.000000000000e+00
  1.227990657000e-01 1.722968738065e-02 0.000000000000e+00
  1.157459851458e-01 2.280154283018e-02 0.000000000000e+00
  1.118717358584e-01 3.720261515131e-02 0.000000000000e+00
  1.126720394445e-01 6.140649665542e-02 0.000000000000e+00
  1.187755695911e-01 9.133569679187e-02 0.000000000000e+00
  1.297339696329e-01 1.186311487954e-01 0.000000000000e+00