# vtk DataFile Version 3.0
Karman Output
ASCII
DATASET RECTILINEAR_GRID
DIMENSIONS 101 101 1
X_COORDINATES 101 float
   0.000000000000e+00   9.900990099010e-03   1.980198019802e-02   2.970297029703e-02   3.960396039604e-02   4.950495049505e-02   5.940594059406e-02   6.930693069307e-02   7.920792079208e-02   8.910891089109e-02   9.900990099010e-02   1.089108910891e-01   1.188118811881e-01   1.287128712871e-01   1.386138613861e-01   1.485148514851e-01   1.584158415842e-01   1.683168316832e-01   1.782178217822e-01   1.881188118812e-01   1.980198019802e-01   2.079207920792e-01   2.178217821782e-01   2.277227722772e-01   2.376237623762e-01   2.475247524752e-01   2.574257425743e-01   2.673267326733e-01   2.772277227723e-01   2.871287128713e-01   2.970297029703e-01   3.069306930693e-01   3.168316831683e-01   3.267326732673e-01   3.366336633663e-01   3.465346534653e-01   3.564356435644e-01   3.663366336634e-01   3.762376237624e-01   3.861386138614e-01   3.960396039604e-01   4.059405940594e-01   4.158415841584e-01   4.257425742574e-01   4.356435643564e-01   4.455445544554e-01   4.554455445545e-01   4.653465346535e-01   4.752475247525e-01   4.851485148515e-01   4.950495049505e-01   5.049504950495e-01   5.148514851485e-01   5.247524752475e-01   5.346534653465e-01   5.445544554455e-01   5.544554455446e-01   5.643564356436e-01   5.742574257426e-01   5.841584158416e-01   5.940594059406e-01   6.039603960396e-01   6.138613861386e-01   6.237623762376e-01   6.336633663366e-01   6.435643564356e-01   6.534653465347e-01   6.633663366337e-01   6.732673267327e-01   6.831683168317e-01   6.930693069307e-01   7.029702970297e-01   7.128712871287e-01   7.227722772277e-01   7.326732673267e-01   7.425742574257e-01   7.524752475248e-01   7.623762376238e-01   7.722772277228e-01   7.821782178218e-01   7.920792079208e-01   8.019801980198e-01   8.118811881188e-01   8.217821782178e-01   8.316831683168e-01   8.415841584158e-01   8.514851485149e-01   8.613861386139e-01   8.712871287129e-01   8.811881188119e-01   8.910891089109e-01   9.009900990099e-01   9.108910891089e-01   9.207920792079e-01   9.306930693069e-01   9.405940594059e-01   9.504950495050e-01   9.603960396040e-01   9.702970297030e-01   9.801980198020e-01   9.900990099010e-01
Y_COORDINATES 101 float
   0.000000000000e+00   9.900990099010e-03   1.980198019802e-02   2.970297029703e-02   3.960396039604e-02   4.950495049505e-02   5.940594059406e-02   6.930693069307e-02   7.920792079208e-02   8.910891089109e-02   9.900990099010e-02   1.089108910891e-01   1.188118811881e-01   1.287128712871e-01   1.386138613861e-01   1.485148514851e-01   1.584158415842e-01   1.683168316832e-01   1.782178217822e-01   1.881188118812e-01   1.980198019802e-01   2.079207920792e-01   2.178217821782e-01   2.277227722772e-01   2.376237623762e-01   2.475247524752e-01   2.574257425743e-01   2.673267326733e-01   2.772277227723e-01   2.871287128713e-01   2.970297029703e-01   3.069306930693e-01   3.168316831683e-01   3.267326732673e-01   3.366336633663e-01   3.465346534653e-01   3.564356435644e-01   3.663366336634e-01   3.762376237624e-01   3.861386138614e-01   3.960396039604e-01   4.059405940594e-01   4.158415841584e-01   4.257425742574e-01   4.356435643564e-01   4.455445544554e-01   4.554455445545e-01   4.653465346535e-01   4.752475247525e-01   4.851485148515e-01   4.950495049505e-01   5.049504950495e-01   5.148514851485e-01   5.247524752475e-01   5.346534653465e-01   5.445544554455e-01   5.544554455446e-01   5.643564356436e-01   5.742574257426e-01   5.841584158416e-01   5.940594059406e-01   6.039603960396e-01   6.138613861386e-01   6.237623762376e-01   6.336633663366e-01   6.435643564356e-01   6.534653465347e-01   6.633663366337e-01   6.732673267327e-01   6.831683168317e-01   6.930693069307e-01   7.029702970297e-01   7.128712871287e-01   7.227722772277e-01   7.326732673267e-01   7.425742574257e-01   7.524752475248e-01   7.623762376238e-01   7.722772277228e-01   7.821782178218e-01   7.920792079208e-01   8.019801980198e-01   8.118811881188e-01   8.217821782178e-01   8.316831683168e-01   8.415841584158e-01   8.514851485149e-01   8.613861386139e-01   8.712871287129e-01   8.811881188119e-01   8.910891089109e-01   9.009900990099e-01   9.108910891089e-01   9.207920792079e-01   9.306930693069e-01   9.405940594059e-01   9.504950495050e-01   9.603960396040e-01   9.702970297030e-01   9.801980198020e-01   9.900990099010e-01
Z_COORDINATES 1 float
  0.000000000000e+00
POINT_DATA 10201
VECTORS E_field float
  0.000000000000e+00 0.000000000000e+00 0.000000000000e+00
  0.000000000000e+00 0.000000000000e+00 0.000000000000e+00
  0.000000000000e+00 0.000000000000e+00 0.000000000000e+00
  0.000000000000e+00 0.000000000000e+00 0.000000000000e+00
  0.000000000000e+00 0.000000000000e+00 0.000000000000e+00
  0.000000000000e+00 0.000000000000e+00 0.000000000000e+00
  0.000000000000e+00 0.000000000000e+00 0.000000000000e+00
  0.000000000000e+00 0.000000000000e+00 0.000000000000e+00
  0.000000000000e+00 0.000000000000e+00 0.000000000000e+00
  0.000000000000e+00 0.000000000000e+00 0.000000000000e+00
  0.000000000000e+00 0.000000000000e+00 0.000000000000e+00
  0.000000000000e+00 0.000000000000e+00 0.000000000000e+00
  0.000000000000e+00 0.000000000000e+00 0.000000000000e+00
  0.000000000000e+00 0.000000000000e+00 0.000000000000e+00
  0.000000000000e+00 0.000000000000e+00 0.000000000000e+00
  0.000000000000e+00 0.000000000000e+00 0.000000000000e+00
  0.000000000000e+00 0.000000000000e+00 0.000000000000e+00
  0.000000000000e+00 0.000000000000e+00 0.000000000000e+00
  0.000000000000e+00 0.000000000000e+00 0.000000000000e+00
  0.000000000000e+00 0.000000000000e+00 0.000000000000e+00
  0.000000000000e+00 0.000000000000e+00 0.000000000000e+00
  0.000000000000e+00 0.000000000000e+00 0.000000000000e+00
  0.000000000000e+00 0.000000000000e+00 0.000000000000e+00
  0.000000000000e+00 0.000000000000e+00 0.000000000000e+00
  0.000000000000e+00 0.000000000000e+00 0.000000000000e+00
  0.000000000000e+00 0.000000000000e+00 0.000000000000e+00
  0.000000000000e+00 0.000000000000e+00 0.000000000000e+00
  0.000000000000e+00 0.000000000000e+00 0.000000000000e+00
  0.000000000000e+00 0.000000000000e+00 0.000000000000e+00
  0.000000000000e+00 0.000000000000e+00 0.000000000000e+00
  0.000000000000e+00 0.000000000000e+00 0.000000000000e+00
  0.000000000000e+00 0.000000000000e+00 0.000000000000e+00
  0.000000000000e+00 0.000000000000e+00 0.000000000000e+00
  0.000000000000e+00 0.000000000000e+00 0.000000000000e+00
  0.000000000000e+00 0.000000000000e+00 0.000000000000e+00
  0.000000000000e+00 0.000000000000e+00 0.000000000000e+00
  0.000000000000e+00 0.000000000000e+00 0.000000000000e+00
  0.000000000000e+00 0.000000000000e+00 0.000000000000e+00
  0.000000000000e+00 0.000000000000e+00 0.000000000000e+00
  0.000000000000e+00 0.000000000000e+00 0.000000000000e+00
  0.000000000000e+00 0.000000000000e+00 0.000000000000e+00
  0.000000000000e+00 0.000000000000e+00 0.000000000000e+00
  0.000000000000e+00 0.000000000000e+00 0.000000000000e+00
  0.000000000000e+00 0.000000000000e+00 0.000000000000e+00
  0.000000000000e+00 0.000000000000e+00 0.000000000000e+00
  0.000000000000e+00 0.000000000000e+00 0.000000000000e+00
  0.000000000000e+00 0.000000000000e+00 0.000000000000e+00
  0.000000000000e+00 0.000000000000e+00 0.000000000000e+00
  0.000000000000e+00 0.000000000000e+00 0.000000000000e+00
  0.000000000000e+00 0.000000000000e+00 0.000000000000e+00
  0.000000000000e+00 0.000000000000e+00 0.000000000000e+00
  0.000000000000e+00 0.000000000000e+00 0.000000000000e+00
  0.000000000000e+00 0.000000000000e+00 0.000000000000e+00
  0.000000000000e+00 0.000000000000e+00 0.000000000000e+00
  0.000000000000e+00 0.000000000000e+00 0.000000000000e+00
  0.000000000000e+00 0.000000000000e+00 0.000000000000e+00
  0.000000000000e+00 0.000000000000e+00 0.000000000000e+00
  0.000000000000e+00 0.000000000000e+00 0.000000000000e+00
  0.000000000000e+00 0.000000000000e+00 0.000000000000e+00
  0.000000000000e+00 0.000000000000e+00 0.000000000000e+00
  0.000000000000e+00 0.000000000000e+00 0.000000000000e+00
  0.000000000000e+00 0.000000000000e+00 0.000000000000e+00
  0.000000000000e+00 0.000000000000e+00 0.000000000000e+00
  0.000000000000e+00 0.000000000000e+00 0.000000000000e+00
  0.000000000000e+00 0.000000000000e+00 0.000000000000e+00
  0.000000000000e+00 0.000000000000e+00 0.000000000000e+00
  0.000000000000e+00 0.000000000000e+00 0.000000000000e+00
  0.000000000000e+00 0.000000000000e+00 0.000000000000e+00
  0.000000000000e+00 0.000000000000e+00 0.000000000000e+00
  0.000000000000e+00 0.000000000000e+00 0.000000000000e+00
  0.000000000000e+00 0.000000000000e+00 0.000000000000e+00
  0.000000000000e+00 0.000000000000e+00 0.000000000000e+00
  0.000000000000e+00 0.000000000000e+00 0.000000000000e+00
  0.000000000000e+00 0.000000000000e+00 0.000000000000e+00
  0.000000000000e+00 0.000000000000e+00 0.000000000000e+00
  0.000000000000e+00 0.000000000000e+00 0.000000000000e+00
  0.000000000000e+00 0.000000000000e+00 0.000000000000e+00
  0.000000000000e+00 0.000000000000e+00 0.000000000000e+00
  0.000000000000e+00 0.000000000000e+00 0.000000000000e+00
  0.000000000000e+00 0.000000000000e+00 0.000000000000e+00
  0.000000000000e+00 0.000000000000e+00 0.000000000000e+00
  0.000000000000e+00 0.000000000000e+00 0.000000000000e+00
  0.000000000000e+00 0.000000000000e+00 0.000000000000e+00
  0.000000000000e+00 0.000000000000e+00 0.000000000000e+00
  0.000000000000e+00 0.000000000000e+00 0.000000000000e+00
  0.000000000000e+00 0.000000000000e+00 0.000000000000e+00
  0.000000000000e+00 0.000000000000e+00 0.000000000000e+00
  0.000000000000e+00 0.000000000000e+00 0.000000000000e+00
  0.000000000000e+00 0.000000000000e+00 0.000000000000e+00
  0.000000000000e+00 0.000000000000e+00 0.000000000000e+00
  0.000000000000e+00 0.000000000000e+00 0.000000000000e+00
  0.000000000000e+00 0.000000000000e+00 0.000000000000e+00
  0.000000000000e+00 0.000000000000e+00 0.000000000000e+00
  0.000000000000e+00 0.000000000000e+00 0.000000000000e+00
  0.000000000000e+00 0.000000000000e+00 0.000000000000e+00
  0.000000000000e+00 0.000000000000e+00 0.000000000000e+00
  0.000000000000e+00 0.000000000000e+00 0.000000000000e+00
  0.000000000000e+00 0.000000000000e+00 0.000000000000e+00
  0.000000000000e+00 0.000000000000e+00 0.000000000000e+00
  0.000000000000e+00 0.000000000000e+00 0.000000000000e+00
  0.000000000000e+00 0.000000000000e+00 0.000000000000e+00
  0.000000000000e+00 0.000000000000e+00 0.000000000000e+00
  -7.250326072150e-03 7.250326072150e-03 0.000000000000e+00
  -7.185037081460e-03 2.023254189751e-02 0.000000000000e+00
  -7.095523492348e-03 2.989586515141e-02 0.000000000000e+00
  -7.041917008473e-03 3.740065414971e-02 0.000000000000e+00
  -7.072113272386e-03 4.680406135118e-02 0.000000000000e+00
  -7.198347287934e-03 6.323088351003e-02 0.000000000000e+00
  -7.392857504005e-03 9.028132569482e-02 0.000000000000e+00
  -7.602299693113e-03 1.280000309129e-01 0.000000000000e+00
  -7.771252432101e-03 1.723130152239e-01 0.000000000000e+00
  -7.862796901681e-03 2.160557865315e-01 0.000000000000e+00
  -7.867847639797e-03 2.510528053322e-01 0.000000000000e+00
  -7.800656167958e-03 2.704265675051e-01 0.000000000000e+00
  -7.682923156462e-03 2.703807318801e-01 0.000000000000e+00
  -7.523042363351e-03 2.509588736315e-01 0.000000000000e+00
  -7.300176810367e-03 2.156224444480e-01 0.000000000000e+00
  -6.963143745611e-03 1.698693727662e-01 0.000000000000e+00
  -6.449048631798e-03 1.194373977198e-01 0.000000000000e+00
  -5.717284892752e-03 6.875322840116e-02 0.000000000000e+00
  -4.786292494363e-03 2.011487826752e-02 0.000000000000e+00
  -3.758798059218e-03 -2.627160382206e-02 0.000000000000e+00
  -2.826331115746e-03 -7.161146363931e-02 0.000000000000e+00
  -2.250410764025e-03 -1.175393979579e-01 0.000000000000e+00
  -2.321076542343e-03 -1.651314295443e-01 0.000000000000e+00
  -3.294355884631e-03 -2.141127500926e-01 0.000000000000e+00
  -5.314338681666e-03 -2.624175098262e-01 0.000000000000e+00
  -8.335761558899e-03 -3.062312162245e-01 0.000000000000e+00
  -1.207436589679e-02 -3.405669851959e-01 0.000000000000e+00
  -1.601411016383e-02 -3.602717478701e-01 0.000000000000e+00
  -1.948520112269e-02 -3.611915497035e-01 0.000000000000e+00
  -2.179861657474e-02 -3.411485678150e-01 0.000000000000e+00
  -2.239591156463e-02 -3.004623792610e-01 0.000000000000e+00
  -2.096397242881e-02 -2.419563539953e-01 0.000000000000e+00
  -1.747965178964e-02 -1.706006087439e-01 0.000000000000e+00
  -1.218057617473e-02 -9.300887415411e-02 0.000000000000e+00
  -5.487863904129e-03 -1.688581997628e-02 0.000000000000e+00
  2.081531984023e-03 4.966486777317e-02 0.000000000000e+00
  9.983835968258e-03 9.912226323725e-02 0.000000000000e+00
  1.768966488692e-02 1.258209303626e-01 0.000000000000e+00
  2.470565086755e-02 1.272558740401e-01 0.000000000000e+00
  3.059128618061e-02 1.049790565031e-01 0.000000000000e+00
  3.498214527711e-02 6.466109861913e-02 0.000000000000e+00
  3.762221135118e-02 1.509667634537e-02 0.000000000000e+00
  3.839995606415e-02 -3.373873043320e-02 0.000000000000e+00
  3.737764405856e-02 -7.309650886606e-02 0.000000000000e+00
  3.480207227419e-02 -9.754125657701e-02 0.000000000000e+00
  3.108812678745e-02 -1.058978509088e-01 0.000000000000e+00
  2.677348940781e-02 -1.006350409518e-01 0.000000000000e+00
  2.245082572638e-02 -8.600035496865e-02 0.000000000000e+00
  1.868913639225e-02 -6.591443628420e-02 0.000000000000e+00
  1.595673128013e-02 -4.279124077403e-02 0.000000000000e+00
  1.455594932459e-02 -1.787149005570e-02 0.000000000000e+00
  1.457753872096e-02 7.342957333045e-03 0.000000000000e+00
  1.588208025576e-02 2.972062744897e-02 0.000000000000e+00
  1.811507844874e-02 4.434123241390e-02 0.000000000000e+00
  2.075808011055e-02 4.589972171364e-02 0.000000000000e+00
  2.320971306262e-02 3.102060327313e-02 0.000000000000e+00
  2.488144491511e-02 2.689151168675e-04 0.000000000000e+00
  2.528838758594e-02 -4.116990606979e-02 0.000000000000e+00
  2.411808748112e-02 -8.445574620703e-02 0.000000000000e+00
  2.126777014183e-02 -1.192723560685e-01 0.000000000000e+00
  1.684854616910e-02 -1.363862574233e-01 0.000000000000e+00
  1.116088111395e-02 -1.297711597069e-01 0.000000000000e+00
  4.649288463394e-03 -9.776249857670e-02 0.000000000000e+00
  -2.153595807872e-03 -4.307001285486e-02 0.000000000000e+00
  -8.683668536877e-03 2.817929885772e-02 0.000000000000e+00
  -1.439711067855e-02 1.079409478813e-01 0.000000000000e+00
  -1.881835386054e-02 1.877878777020e-01 0.000000000000e+00
  -2.158921155575e-02 2.601063665945e-01 0.000000000000e+00
  -2.251998549374e-02 3.188400909792e-01 0.000000000000e+00
  -2.163251479673e-02 3.598798712406e-01 0.000000000000e+00
  -1.917606701161e-02 3.812333998670e-01 0.000000000000e+00
  -1.559899387868e-02 3.830117492518e-01 0.000000000000e+00
  -1.147398960601e-02 3.671815303833e-01 0.000000000000e+00
  -7.394399733735e-03 3.370516422870e-01 0.000000000000e+00
  -3.871130995275e-03 2.965660177230e-01 0.000000000000e+00
  -1.257403096165e-03 2.495628765511e-01 0.000000000000e+00
  2.850095543347e-04 1.991709705493e-01 0.000000000000e+00
  7.795389858687e-04 1.474522767811e-01 0.000000000000e+00
  3.985859777041e-04 9.532460245477e-02 0.000000000000e+00
  -5.916830194931e-04 4.275825921459e-02 0.000000000000e+00
  -1.895639998429e-03 -1.075872503487e-02 0.000000000000e+00
  -3.250356197303e-03 -6.550946202890e-02 0.000000000000e+00
  -4.471585995046e-03 -1.207148906019e-01 0.000000000000e+00
  -5.471063122595e-03 -1.738709492445e-01 0.000000000000e+00
  -6.241957507261e-03 -2.206489413261e-01 0.000000000000e+00
  -6.822744420780e-03 -2.556264353991e-01 0.000000000000e+00
  -7.258406206055e-03 -2.737573044635e-01 0.000000000000e+00
  -7.575855348409e-03 -2.720919765449e-01 0.000000000000e+00
  -7.779923844348e-03 -2.510742794262e-01 0.000000000000e+00
  -7.865099678707e-03 -2.148720333318e-01 0.000000000000e+00
  -7.832762252198e-03 -1.705440622824e-01 0.000000000000e+00
  -7.704396537891e-03 -1.262341177689e-01 0.000000000000e+00
  -7.524746138532e-03 -8.890911156040e-02 0.000000000000e+00
  -7.352716402125e-03 -6.238236694686e-02 0.000000000000e+00
  -7.242317666434e-03 -4.639739016795e-02 0.000000000000e+00
  -7.221221400820e-03 -3.725916624216e-02 0.000000000000e+00
  -7.278011394298e-03 -2.986224195850e-02 0.000000000000e+00
  -7.367041859848e-03 -2.022420542798e-02 0.000000000000e+00
  -7.431074205711e-03 -7.247352584393e-03 0.000000000000e+00
  0.000000000000e+00 0.000000000000e+00 0.000000000000e+00
  0.000000000000e+00 0.000000000000e+00 0.000000000000e+00
  -2.023254189751e-02 7.185037081460e-03 0.000000000000e+00
  -2.008378734678e-02 2.008378734678e-02 0.000000000000e+00
  -1.990795159821e-02 2.977927036446e-02 0.000000000000e+00
  -1.988267728167e-02 3.743836813625e-02 0.000000000000e+00
  -2.014805733729e-02 4.706192368418e-02 0.000000000000e+00
  -2.073661853306e-02 6.368781638833e-02 0.000000000000e+00
  -2.156031308151e-02 9.084259758104e-02 0.000000000000e+00
  -2.245355771242e-02 1.285414458467e-01 0.000000000000e+00
  -2.324348320135e-02 1.727304785180e-01 0.000000000000e+00
  -2.381143417039e-02 2.162978186760e-01 0.000000000000e+00
  -2.412083443233e-02 2.511252241877e-01 0.000000000000e+00
  -2.420392345090e-02 2.703700461963e-01 0.000000000000e+00
  -2.411502716899e-02 2.702306238955e-01 0.000000000000e+00
  -2.386999633712e-02 2.507040699911e-01 0.000000000000e+00
  -2.340025884763e-02 2.151846450460e-01 0.000000000000e+00
  -2.255020834850e-02 1.691200886044e-01 0.000000000000e+00
  -2.113185005069e-02 1.182542284700e-01 0.000000000000e+00
  -1.902379664682e-02 6.709658050804e-02 0.000000000000e+00
  -1.627811673602e-02 1.809485385144e-02 0.000000000000e+00
  -1.319363354352e-02 -2.836355703362e-02 0.000000000000e+00
  -1.032869287092e-02 -7.331691804382e-02 0.000000000000e+00
  -8.445540797068e-03 -1.182930159790e-01 0.000000000000e+00
  -8.388524412216e-03 -1.643641621298e-01 0.000000000000e+00
  -1.090175157069e-02 -2.113935110064e-01 0.000000000000e+00
  -1.640376986301e-02 -2.576147478231e-01 0.000000000000e+00
  -2.476546616769e-02 -2.996508590457e-01 0.000000000000e+00
  -3.516877556489e-02 -3.330054286395e-01 0.000000000000e+00
  -4.612834107272e-02 -3.529339946515e-01 0.000000000000e+00
  -5.571552683042e-02 -3.554710262055e-01 0.000000000000e+00
  -6.194456265964e-02 -3.383266400318e-01 0.000000000000e+00
  -6.320457131207e-02 -3.014270034019e-01 0.000000000000e+00
  -5.859441389180e-02 -2.470338264103e-01 0.000000000000e+00
  -4.805874583257e-02 -1.795431250268e-01 0.000000000000e+00
  -3.231106830647e-02 -1.051131110113e-01 0.000000000000e+00
  -1.261319225688e-02 -3.117217143764e-02 0.000000000000e+00
  9.483305541576e-03 3.428532555088e-02 0.000000000000e+00
  3.234941733133e-02 8.373338969063e-02 0.000000000000e+00
  5.441430102859e-02 1.114390913016e-01 0.000000000000e+00
  7.424215873440e-02 1.147938694276e-01 0.000000000000e+00
  9.058853631312e-02 9.520904824315e-02 0.000000000000e+00
  1.024661713200e-01 5.816261280330e-02 0.000000000000e+00
  1.092286754946e-01 1.219259194986e-02 0.000000000000e+00
  1.106586259824e-01 -3.304234119060e-02 0.000000000000e+00
  1.070326492729e-01 -6.914460933533e-02 0.000000000000e+00
  9.913328028010e-02 -9.101821526357e-02 0.000000000000e+00
  8.818723036607e-02 -9.776089674906e-02 0.000000000000e+00
  7.572955405909e-02 -9.199968135194e-02 0.000000000000e+00
  6.341444326832e-02 -7.799794002875e-02 0.000000000000e+00
  5.280543649792e-02 -5.954615506380e-02 0.000000000000e+00
  4.517635106740e-02 -3.879803141351e-02 0.000000000000e+00
  4.134508897153e-02 -1.663265534815e-02 0.000000000000e+00
  4.155616575883e-02 5.871456434984e-03 0.000000000000e+00
  4.542890982353e-02 2.601484271795e-02 0.000000000000e+00
  5.199027848290e-02 3.925265024352e-02 0.000000000000e+00
  5.980306310927e-02 4.053251753250e-02 0.000000000000e+00
  6.717836758415e-02 2.656086995587e-02 0.000000000000e+00
  7.243511135498e-02 -2.199827262510e-03 0.000000000000e+00
  7.415426884117e-02 -4.082726391721e-02 0.000000000000e+00
  7.137988704680e-02 -8.085370652266e-02 0.000000000000e+00
  6.373778092771e-02 -1.123819723468e-01 0.000000000000e+00
  5.146432769253e-02 -1.265839639788e-01 0.000000000000e+00
  3.535391037421e-02 -1.177753708095e-01 0.000000000000e+00
  1.664398377046e-02 -8.453676824245e-02 0.000000000000e+00
  -3.136788806156e-03 -2.971208635674e-02 0.000000000000e+00
  -2.233172369822e-02 4.054637997057e-02 0.000000000000e+00
  -3.931492288374e-02 1.182705080893e-01 0.000000000000e+00
  -5.264600562388e-02 1.952106434124e-01 0.000000000000e+00
  -6.122922103656e-02 2.640376739899e-01 0.000000000000e+00
  -6.447305236513e-02 3.190833888492e-01 0.000000000000e+00
  -6.241784289349e-02 3.566938932014e-01 0.000000000000e+00
  -5.577716178542e-02 3.753222490127e-01 0.000000000000e+00
  -4.584785159600e-02 3.754165167836e-01 0.000000000000e+00
  -3.428726843137e-02 3.590911754141e-01 0.000000000000e+00
  -2.281066627530e-02 3.295858052278e-01 0.000000000000e+00
  -1.289367895028e-02 2.905915987187e-01 0.000000000000e+00
  -5.556512184079e-03 2.455864008901e-01 0.000000000000e+00
  -1.267454820868e-03 1.973159761967e-01 0.000000000000e+00
  3.912398737466e-05 1.475061628940e-01 0.000000000000e+00
  -1.141296187385e-03 9.683208952478e-02 0.000000000000e+00
  -4.042232693202e-03 4.514197764760e-02 0.000000000000e+00
  -7.811515406957e-03 -8.069203775183e-03 0.000000000000e+00
  -1.169057653565e-02 -6.296520596101e-02 0.000000000000e+00
  -1.514729529914e-02 -1.185811981085e-01 0.000000000000e+00
  -1.792647334202e-02 -1.722259865674e-01 0.000000000000e+00
  -2.000879040422e-02 -2.194406925563e-01 0.000000000000e+00
  -2.150737671407e-02 -2.547553109455e-01 0.000000000000e+00
  -2.255607441673e-02 -2.731440694292e-01 0.000000000000e+00
  -2.323802498498e-02 -2.717058118687e-01 0.000000000000e+00
  -2.357337705191e-02 -2.509210235396e-01 0.000000000000e+00
  -2.355287514885e-02 -2.149606152871e-01 0.000000000000e+00
  -2.318800139853e-02 -1.708526915039e-01 0.000000000000e+00
  -2.254976493704e-02 -1.266920907232e-01 0.000000000000e+00
  -2.177790754494e-02 -8.940264639757e-02 0.000000000000e+00
  -2.105364036798e-02 -6.278512902305e-02 0.000000000000e+00
  -2.054263506940e-02 -4.661603212603e-02 0.000000000000e+00
  -2.033095024490e-02 -3.727330537420e-02 0.000000000000e+00
  -2.038702605436e-02 -2.973523702352e-02 0.000000000000e+00
  -2.057631094378e-02 -2.007289500798e-02 0.000000000000e+00
  -2.072897425686e-02 -7.181967345453e-03 0.000000000000e+00
  0.000000000000e+00 0.000000000000e+00 0.000000000000e+00
  0.000000000000e+00 0.000000000000e+00 0.000000000000e+00
  -2.989586515141e-02 7.095523492348e-03 0.000000000000e+00
  -2.977927036446e-02 1.990795159821e-02 0.000000000000e+00
  -2.974414741322e-02 2.974414741322e-02 0.000000000000e+00
  -3.007808509085e-02 3.778215444858e-02 0.000000000000e+00
  -3.100364346762e-02 4.790907580424e-02 0.000000000000e+00
  -3.256253632827e-02 6.498811832469e-02 0.000000000000e+00
  -3.459397738182e-02 9.239743124669e-02 0.000000000000e+00
  -3.680576592762e-02 1.300916453577e-01 0.000000000000e+00
  -3.889050277046e-02 1.740549413387e-01 0.000000000000e+00
  -4.062732792728e-02 2.172781319811e-01 0.000000000000e+00
  -4.192801398001e-02 2.517549971973e-01 0.000000000000e+00
  -4.281568528671e-02 2.707110335120e-01 0.000000000000e+00
  -4.335000025237e-02 2.703350552635e-01 0.000000000000e+00
  -4.353162295637e-02 2.505362304952e-01 0.000000000000e+00
  -4.323126912119e-02 2.145823932172e-01 0.000000000000e+00
  -4.218741399304e-02 1.678284348059e-01 0.000000000000e+00
  -4.009310973344e-02 1.160332197111e-01 0.000000000000e+00
  -3.675123344062e-02 6.386765957027e-02 0.000000000000e+00
  -3.224151938214e-02 1.406838081993e-02 0.000000000000e+00
  -2.703486849453e-02 -3.262821808221e-02 0.000000000000e+00
  -2.201199714893e-02 -7.694006901342e-02 0.000000000000e+00
  -1.837326328791e-02 -1.201917509442e-01 0.000000000000e+00
  -1.744400840050e-02 -1.634516984368e-01 0.000000000000e+00
  -2.038747137868e-02 -2.068492845627e-01 0.000000000000e+00
  -2.785616531627e-02 -2.491882620368e-01 0.000000000000e+00
  -3.965391122016e-02 -2.879179026234e-01 0.000000000000e+00
  -5.452464882894e-02 -3.194643380559e-01 0.000000000000e+00
  -7.018894577389e-02 -3.398512227824e-01 0.000000000000e+00
  -8.368597753951e-02 -3.454695805512e-01 0.000000000000e+00
  -9.196233806333e-02 -3.338226893327e-01 0.000000000000e+00
  -9.253674393649e-02 -3.040965395747e-01 0.000000000000e+00
  -8.402699563798e-02 -2.574841959548e-01 0.000000000000e+00
  -6.638147653158e-02 -1.972739426450e-01 0.000000000000e+00
  -4.078260969545e-02 -1.287288377497e-01 0.000000000000e+00
  -9.314420484080e-03 -5.872250994960e-02 0.000000000000e+00
  2.545303825852e-02 4.971707540798e-03 0.000000000000e+00
  6.083111741301e-02 5.480281678889e-02 0.000000000000e+00
  9.427211182897e-02 8.486378614281e-02 0.000000000000e+00
  1.235312554109e-01 9.228217338042e-02 0.000000000000e+00
  1.467758451383e-01 7.812977710498e-02 0.000000000000e+00
  1.626818517210e-01 4.745824252187e-02 0.000000000000e+00
  1.705325557057e-01 8.283754299899e-03 0.000000000000e+00
  1.703052508554e-01 -3.033614888754e-02 0.000000000000e+00
  1.627131428070e-01 -6.063271652910e-02 0.000000000000e+00
  1.491673089252e-01 -7.808490479309e-02 0.000000000000e+00
  1.316403947695e-01 -8.222124271713e-02 0.000000000000e+00
  1.124435131121e-01 -7.588477698479e-02 0.000000000000e+00
  9.395510792994e-02 -6.330932802142e-02 0.000000000000e+00
  7.834928908265e-02 -4.801994112185e-02 0.000000000000e+00
  6.735801400154e-02 -3.170388461550e-02 0.000000000000e+00
  6.208037813337e-02 -1.461790408130e-02 0.000000000000e+00
  6.284291413037e-02 2.883092346036e-03 0.000000000000e+00
  6.912442291924e-02 1.884895378109e-02 0.000000000000e+00
  7.957438044126e-02 2.940721271090e-02 0.000000000000e+00
  9.215345800315e-02 2.998609250270e-02 0.000000000000e+00
  1.043981767216e-01 1.748727136806e-02 0.000000000000e+00
  1.137714535965e-01 -7.756249758251e-03 0.000000000000e+00
  1.180312690329e-01 -4.124981476330e-02 0.000000000000e+00
  1.155471326926e-01 -7.517263791849e-02 0.000000000000e+00
  1.055150489112e-01 -1.003888513697e-01 0.000000000000e+00
  8.805020248197e-02 -1.088387855479e-01 0.000000000000e+00
  6.415962105142e-02 -9.551955068712e-02 0.000000000000e+00
  3.561237450442e-02 -5.953541535602e-02 0.000000000000e+00
  4.734792948271e-03 -4.055085208528e-03 0.000000000000e+00
  -2.583903331614e-02 6.465813991417e-02 0.000000000000e+00
  -5.343932077493e-02 1.387422347494e-01 0.000000000000e+00
  -7.564717537584e-02 2.102778540690e-01 0.000000000000e+00
  -9.059130230097e-02 2.724978056572e-01 0.000000000000e+00
  -9.723013153074e-02 3.205059177326e-01 0.000000000000e+00
  -9.555872340134e-02 3.515447467130e-01 0.000000000000e+00
  -8.665929881773e-02 3.649312898075e-01 0.000000000000e+00
  -7.253859239906e-02 3.617574593797e-01 0.000000000000e+00
  -5.576388888963e-02 3.444149461435e-01 0.000000000000e+00
  -3.898697225766e-02 3.160085157103e-01 0.000000000000e+00
  -2.448575818035e-02 2.797506868339e-01 0.000000000000e+00
  -1.383560108957e-02 2.384399889180e-01 0.000000000000e+00
  -7.762996099488e-03 1.941007258155e-01 0.000000000000e+00
  -6.172863216207e-03 1.478247015836e-01 0.000000000000e+00
  -8.307149270805e-03 9.982825706451e-02 0.000000000000e+00
  -1.298820708562e-02 4.972780442850e-02 0.000000000000e+00
  -1.890374919362e-02 -2.970205734333e-03 0.000000000000e+00
  -2.488303722288e-02 -5.820585484390e-02 0.000000000000e+00
  -3.010218199355e-02 -1.146646856915e-01 0.000000000000e+00
  -3.416373704240e-02 -1.693017658927e-01 0.000000000000e+00
  -3.703635831733e-02 -2.174099748939e-01 0.000000000000e+00
  -3.889810236747e-02 -2.534256982479e-01 0.000000000000e+00
  -3.996508140134e-02 -2.723580053902e-01 0.000000000000e+00
  -4.038009231207e-02 -2.713949144287e-01 0.000000000000e+00
  -4.019163676212e-02 -2.510850244626e-01 0.000000000000e+00
  -3.940496544915e-02 -2.156037875801e-01 0.000000000000e+00
  -3.806070045059e-02 -1.719186579598e-01 0.000000000000e+00
  -3.629667142429e-02 -1.280283897551e-01 0.000000000000e+00
  -3.436232918248e-02 -9.077254699960e-02 0.000000000000e+00
  -3.257330608348e-02 -6.392851869698e-02 0.000000000000e+00
  -3.121685681740e-02 -4.734009701676e-02 0.000000000000e+00
  -3.044583996949e-02 -3.753194215587e-02 0.000000000000e+00
  -3.021609496337e-02 -2.965026943852e-02 0.000000000000e+00
  -3.031094229263e-02 -1.987373037430e-02 0.000000000000e+00
  -3.045336222629e-02 -7.086048732405e-03 0.000000000000e+00
  0.000000000000e+00 0.000000000000e+00 0.000000000000e+00
  0.000000000000e+00 0.000000000000e+00 0.000000000000e+00
  -3.740065414972e-02 7.041917008473e-03 0.000000000000e+00
  -3.743836813625e-02 1.988267728167e-02 0.000000000000e+00
  -3.778215444858e-02 3.007808509085e-02 0.000000000000e+00
  -3.881880450435e-02 3.881880450435e-02 0.000000000000e+00
  -4.083996539006e-02 4.981914501096e-02 0.000000000000e+00
  -4.388190173200e-02 6.767887832057e-02 0.000000000000e+00
  -4.769533543567e-02 9.555154600803e-02 0.000000000000e+00
  -5.184370787691e-02 1.332976915834e-01 0.000000000000e+00
  -5.586414289841e-02 1.769540669774e-01 0.000000000000e+00
  -5.940840363726e-02 2.196600922382e-01 0.000000000000e+00
  -6.230692832563e-02 2.535722476813e-01 0.000000000000e+00
  -6.454099103090e-02 2.720155170399e-01 0.000000000000e+00
  -6.614420792271e-02 2.711681035931e-01 0.000000000000e+00
  -6.707924324693e-02 2.508198401938e-01 0.000000000000e+00
  -6.714886042409e-02 2.140680468605e-01 0.000000000000e+00
  -6.599588412654e-02 1.661459497368e-01 0.000000000000e+00
  -6.321568587067e-02 1.128412022647e-01 0.000000000000e+00
  -5.855402757985e-02 5.905614243304e-02 0.000000000000e+00
  -5.211897466014e-02 7.935130978968e-03 0.000000000000e+00
  -4.452514060133e-02 -3.929545318767e-02 0.000000000000e+00
  -3.691416027581e-02 -8.290668557908e-02 0.000000000000e+00