# vtk DataFile Version 3.0
Karman Output
ASCII
DATASET RECTILINEAR_GRID
DIMENSIONS 101 101 1
X_COORDINATES 101 float
   0.000000000000e+00   9.900990099010e-03   1.980198019802e-02   2.970297029703e-02   3.960396039604e-02   4.950495049505e-02   5.940594059406e-02   6.930693069307e-02   7.920792079208e-02   8.910891089109e-02   9.900990099010e-02   1.089108910891e-01   1.188118811881e-01   1.287128712871e-01   1.386138613861e-01   1.485148514851e-01   1.584158415842e-01   1.683168316832e-01   1.782178217822e-01   1.881188118812e-01   1.980198019802e-01   2.079207920792e-01   2.178217821782e-01   2.277227722772e-01   2.376237623762e-01   2.475247524752e-01   2.574257425743e-01   2.673267326733e-01   2.772277227723e-01   2.871287128713e-01   2.970297029703e-01   3.069306930693e-01   3.168316831683e-01   3.267326732673e-01   3.366336633663e-01   3.465346534653e-01   3.564356435644e-01   3.663366336634e-01   3.762376237624e-01   3.861386138614e-01   3.960396039604e-01   4.059405940594e-01   4.158415841584e-01   4.257425742574e-01   4.356435643564e-01   4.455445544554e-01   4.554455445545e-01   4.653465346535e-01   4.752475247525e-01   4.851485148515e-01   4.950495049505e-01   5.049504950495e-01   5.148514851485e-01   5.247524752475e-01   5.346534653465e-01   5.445544554455e-01   5.544554455446e-01   5.643564356436e-01   5.742574257426e-01   5.841584158416e-01   5.940594059406e-01   6.039603960396e-01   6.138613861386e-01   6.237623762376e-01   6.336633663366e-01   6.435643564356e-01   6.534653465347e-01   6.633663366337e-01   6.732673267327e-01   6.831683168317e-01   6.930693069307e-01   7.029702970297e-01   7.128712871287e-01   7.227722772277e-01   7.326732673267e-01   7.425742574257e-01   7.524752475248e-01   7.623762376238e-01   7.722772277228e-01   7.821782178218e-01   7.920792079208e-01   8.019801980198e-01   8.118811881188e-01   8.217821782178e-01   8.316831683168e-01   8.415841584158e-01   8.514851485149e-01   8.613861386139e-01   8.712871287129e-01   8.811881188119e-01   8.910891089109e-01   9.009900990099e-01   9.108910891089e-01   9.207920792079e-01   9.306930693069e-01   9.405940594059e-01   9.504950495050e-01   9.603960396040e-01   9.702970297030e-01   9.801980198020e-01   9.900990099010e-01
Y_COORDINATES 101 float
   0.000000000000e+00   9.900990099010e-03   1.980198019802e-02   2.970297029703e-02   3.960396039604e-02   4.950495049505e-02   5.940594059406e-02   6.930693069307e-02   7.920792079208e-02   8.910891089109e-02   9.900990099010e-02   1.089108910891e-01   1.188118811881e-01   1.287128712871e-01   1.386138613861e-01   1.485148514851e-01   1.584158415842e-01   1.683168316832e-01   1.782178217822e-01   1.881188118812e-01   1.980198019802e-01   2.079207920792e-01   2.178217821782e-01   2.277227722772e-01   2.376237623762e-01   2.475247524752e-01   2.574257425743e-01   2.673267326733e-01   2.772277227723e-01   2.871287128713e-01   2.970297029703e-01   3.069306930693e-01   3.168316831683e-01   3.267326732673e-01   3.366336633663e-01   3.465346534653e-01   3.564356435644e-01   3.663366336634e-01   3.762376237624e-01   3.861386138614e-01   3.960396039604e-01   4.059405940594e-01   4.158415841584e-01   4.257425742574e-01   4.356435643564e-01   4.455445544554e-01   4.554455445545e-01   4.653465346535e-01   4.752475247525e-01   4.851485148515e-01   4.950495049505e-01   5.049504950495e-01   5.148514851485e-01   5.247524752475e-01   5.346534653465e-01   5.445544554455e-01   5.544554455446e-01   5.643564356436e-01   5.742574257426e-01   5.841584158416e-01   5.940594059406e-01   6.039603960396e-01   6.138613861386e-01   6.237623762376e-01   6.336633663366e-01   6.435643564356e-01   6.534653465347e-01   6.633663366337e-01   6.732673267327e-01   6.831683168317e-01   6.930693069307e-01   7.029702970297e-01   7.128712871287e-01   7.227722772277e-01   7.326732673267e-01   7.425742574257e-01   7.524752475248e-01   7.623762376238e-01   7.722772277228e-01   7.821782178218e-01   7.920792079208e-01   8.019801980198e-01   8.118811881188e-01   8.217821782178e-01   8.316831683168e-01   8.415841584158e-01   8.514851485149e-01   8.613861386139e-01   8.712871287129e-01   8.811881188119e-01   8.910891089109e-01   9.009900990099e-01   9.108910891089e-01   9.207920792079e-01   9.306930693069e-01   9.405940594059e-01   9.504950495050e-01   9.603960396040e-01   9.702970297030e-01   9.801980198020e-01   9.900990099010e-01
Z_COORDINATES 1 float
  0.000000000000e+00
POINT_DATA 10201
VECTORS E_field float
  0.000000000000e+00 0.000000000000e+00 0.000000000000e+00
  0.000000000000e+00 0.000000000000e+00 0.000000000000e+00
  0.000000000000e+00 0.000000000000e+00 0.000000000000e+00
  0.000000000000e+00 0.000000000000e+00 0.000000000000e+00
  0.000000000000e+00 0.000000000000e+00 0.000000000000e+00
  0.000000000000e+00 0.000000000000e+00 0.000000000000e+00
  0.000000000000e+00 0.000000000000e+00 0.000000000000e+00
  0.000000000000e+00 0.000000000000e+00 0.000000000000e+00
  0.000000000000e+00 0.000000000000e+00 0.000000000000e+00
  0.000000000000e+00 0.000000000000e+00 0.000000000000e+00
  0.000000000000e+00 0.000000000000e+00 0.000000000000e+00
  0.000000000000e+00 0.000000000000e+00 0.000000000000e+00
  0.000000000000e+00 0.000000000000e+00 0.000000000000e+00
  0.000000000000e+00 0.000000000000e+00 0.000000000000e+00
  0.000000000000e+00 0.000000000000e+00 0.000000000000e+00
  0.000000000000e+00 0.000000000000e+00 0.000000000000e+00
  0.000000000000e+00 0.000000000000e+00 0.000000000000e+00
  0.000000000000e+00 0.000000000000e+00 0.000000000000e+00
  0.000000000000e+00 0.000000000000e+00 0.000000000000e+00
  0.000000000000e+00 0.000000000000e+00 0.000000000000e+00
  0.000000000000e+00 0.000000000000e+00 0.000000000000e+00
  0.000000000000e+00 0.000000000000e+00 0.000000000000e+00
  0.000000000000e+00 0.000000000000e+00 0.000000000000e+00
  0.000000000000e+00 0.000000000000e+00 0.000000000000e+00
  0.000000000000e+00 0.000000000000e+00 0.000000000000e+00
  0.000000000000e+00 0.000000000000e+00 0.000000000000e+00
  0.000000000000e+00 0.000000000000e+00 0.000000000000e+00
  0.000000000000e+00 0.000000000000e+00 0.000000000000e+00
  0.000000000000e+00 0.000000000000e+00 0.000000000000e+00
  0.000000000000e+00 0.000000000000e+00 0.000000000000e+00
  0.000000000000e+00 0.000000000000e+00 0.000000000000e+00
  0.000000000000e+00 0.000000000000e+00 0.000000000000e+00
  0.000000000000e+00 0.000000000000e+00 0.000000000000e+00
  0.000000000000e+00 0.000000000000e+00 0.000000000000e+00
  0.000000000000e+00 0.000000000000e+00 0.000000000000e+00
  0.000000000000e+00 0.000000000000e+00 0.000000000000e+00
  0.000000000000e+00 0.000000000000e+00 0.000000000000e+00
  0.000000000000e+00 0.000000000000e+00 0.000000000000e+00
  0.000000000000e+00 0.000000000000e+00 0.000000000000e+00
  0.000000000000e+00 0.000000000000e+00 0.000000000000e+00
  0.000000000000e+00 0.000000000000e+00 0.000000000000e+00
  0.000000000000e+00 0.000000000000e+00 0.000000000000e+00
  0.000000000000e+00 0.000000000000e+00 0.000000000000e+00
  0.000000000000e+00 0.000000000000e+00 0.000000000000e+00
  0.000000000000e+00 0.000000000000e+00 0.000000000000e+00
  0.000000000000e+00 0.000000000000e+00 0.000000000000e+00
  0.000000000000e+00 0.000000000000e+00 0.000000000000e+00
  0.000000000000e+00 0.000000000000e+00 0.000000000000e+00
  0.000000000000e+00 0.000000000000e+00 0.000000000000e+00
  0.000000000000e+00 0.000000000000e+00 0.000000000000e+00
  0.000000000000e+00 0.000000000000e+00 0.000000000000e+00
  0.000000000000e+00 0.000000000000e+00 0.000000000000e+00
  0.000000000000e+00 0.000000000000e+00 0.000000000000e+00
  0.000000000000e+00 0.000000000000e+00 0.000000000000e+00
  0.000000000000e+00 0.000000000000e+00 0.000000000000e+00
  0.000000000000e+00 0.000000000000e+00 0.000000000000e+00
  0.000000000000e+00 0.000000000000e+00 0.000000000000e+00
  0.000000000000e+00 0.000000000000e+00 0.000000000000e+00
  0.000000000000e+00 0.000000000000e+00 0.000000000000e+00
  0.000000000000e+00 0.000000000000e+00 0.000000000000e+00
  0.000000000000e+00 0.000000000000e+00 0.000000000000e+00
  0.000000000000e+00 0.000000000000e+00 0.000000000000e+00
  0.000000000000e+00 0.000000000000e+00 0.000000000000e+00
  0.000000000000e+00 0.000000000000e+00 0.000000000000e+00
  0.000000000000e+00 0.000000000000e+00 0.000000000000e+00
  0.000000000000e+00 0.000000000000e+00 0.000000000000e+00
  0.000000000000e+00 0.000000000000e+00 0.000000000000e+00
  0.000000000000e+00 0.000000000000e+00 0.000000000000e+00
  0.000000000000e+00 0.000000000000e+00 0.000000000000e+00
  0.000000000000e+00 0.000000000000e+00 0.000000000000e+00
  0.000000000000e+00 0.000000000000e+00 0.000000000000e+00
  0.000000000000e+00 0.000000000000e+00 0.000000000000e+00
  0.000000000000e+00 0.000000000000e+00 0.000000000000e+00
  0.000000000000e+00 0.000000000000e+00 0.000000000000e+00
  0.000000000000e+00 0.000000000000e+00 0.000000000000e+00
  0.000000000000e+00 0.000000000000e+00 0.000000000000e+00
  0.000000000000e+00 0.000000000000e+00 0.000000000000e+00
  0.000000000000e+00 0.000000000000e+00 0.000000000000e+00
  0.000000000000e+00 0.000000000000e+00 0.000000000000e+00
  0.000000000000e+00 0.000000000000e+00 0.000000000000e+00
  0.000000000000e+00 0.000000000000e+00 0.000000000000e+00
  0.000000000000e+00 0.000000000000e+00 0.000000000000e+00
  0.000000000000e+00 0.000000000000e+00 0.000000000000e+00
  0.000000000000e+00 0.000000000000e+00 0.000000000000e+00
  0.000000000000e+00 0.000000000000e+00 0.000000000000e+00
  0.000000000000e+00 0.000000000000e+00 0.000000000000e+00
  0.000000000000e+00 0.000000000000e+00 0.000000000000e+00
  0.000000000000e+00 0.000000000000e+00 0.000000000000e+00
  0.000000000000e+00 0.000000000000e+00 0.000000000000e+00
  0.000000000000e+00 0.000000000000e+00 0.000000000000e+00
  0.000000000000e+00 0.000000000000e+00 0.000000000000e+00
  0.000000000000e+00 0.000000000000e+00 0.000000000000e+00
  0.000000000000e+00 0.000000000000e+00 0.000000000000e+00
  0.000000000000e+00 0.000000000000e+00 0.000000000000e+00
  0.000000000000e+00 0.000000000000e+00 0.000000000000e+00
  0.000000000000e+00 0.000000000000e+00 0.000000000000e+00
  0.000000000000e+00 0.000000000000e+00 0.000000000000e+00
  0.000000000000e+00 0.000000000000e+00 0.000000000000e+00
  0.000000000000e+00 0.000000000000e+00 0.000000000000e+00
  0.000000000000e+00 0.000000000000e+00 0.000000000000e+00
  0.000000000000e+00 0.000000000000e+00 0.000000000000e+00
  0.000000000000e+00 0.000000000000e+00 0.000000000000e+00
  -2.927840284948e-02 2.927840284948e-02 0.000000000000e+00
  -2.849536474072e-02 8.241246452671e-02 0.000000000000e+00
  -2.696499694308e-02 1.206672900688e-01 0.000000000000e+00
  -2.476298673332e-02 1.383154798677e-01 0.000000000000e+00
  -2.200542784174e-02 1.345429505729e-01 0.000000000000e+00
  -1.883618236552e-02 1.131674134546e-01 0.000000000000e+00
  -1.539915414555e-02 8.107654982635e-02 0.000000000000e+00
  -1.180389315450e-02 4.597157499944e-02 0.000000000000e+00
  -8.099580625999e-03 1.418225350937e-02 0.000000000000e+00
  -4.271251402742e-03 -1.075486071459e-02 0.000000000000e+00
  -2.638816118535e-04 -2.835359529314e-02 0.000000000000e+00
  3.971252095139e-03 -4.029452676602e-02 0.000000000000e+00
  8.422886687692e-03 -4.886543977473e-02 0.000000000000e+00
  1.297733133450e-02 -5.548164425624e-02 0.000000000000e+00
  1.740233330798e-02 -6.000605125021e-02 0.000000000000e+00
  2.136363579828e-02 -6.116228759872e-02 0.000000000000e+00
  2.447122621838e-02 -5.769537229012e-02 0.000000000000e+00
  2.634606207614e-02 -4.947570236414e-02 0.000000000000e+00
  2.669541943521e-02 -3.780929233902e-02 0.000000000000e+00
  2.538333904168e-02 -2.479769518918e-02 0.000000000000e+00
  2.248025492992e-02 -1.226145769692e-02 0.000000000000e+00
  1.827516738301e-02 -9.924449821527e-04 0.000000000000e+00
  1.323954774257e-02 9.225764447187e-03 0.000000000000e+00
  7.946394529359e-03 1.897490470240e-02 0.000000000000e+00
  2.965322044654e-03 2.844057798895e-02 0.000000000000e+00
  -1.234763819415e-03 3.695875337554e-02 0.000000000000e+00
  -4.347418219690e-03 4.298202189968e-02 0.000000000000e+00
  -6.243185852128e-03 4.436391983082e-02 0.000000000000e+00
  -6.944475780000e-03 3.886431859333e-02 0.000000000000e+00
  -6.579628843493e-03 2.483034144215e-02 0.000000000000e+00
  -5.334519729698e-03 1.909224270650e-03 0.000000000000e+00
  -3.412594812735e-03 -2.854695687186e-02 0.000000000000e+00
  -1.007775158755e-03 -6.375611388983e-02 0.000000000000e+00
  1.707134181605e-03 -1.005245052878e-01 0.000000000000e+00
  4.573798890127e-03 -1.365736435229e-01 0.000000000000e+00
  7.424110383622e-03 -1.714232879100e-01 0.000000000000e+00
  1.004762147389e-02 -2.062196550744e-01 0.000000000000e+00
  1.216949703108e-02 -2.424518731045e-01 0.000000000000e+00
  1.346040780501e-02 -2.801440601180e-01 0.000000000000e+00
  1.358997585981e-02 -3.164810106168e-01 0.000000000000e+00
  1.231502037438e-02 -3.457209995643e-01 0.000000000000e+00
  9.572498409945e-03 -3.607018001403e-01 0.000000000000e+00
  5.537000352775e-03 -3.554842026181e-01 0.000000000000e+00
  6.117005067088e-04 -3.280363367577e-01 0.000000000000e+00
  -4.652183488797e-03 -2.816623504493e-01 0.000000000000e+00
  -9.680626259510e-03 -2.242882104882e-01 0.000000000000e+00
  -1.399835265614e-02 -1.656400894622e-01 0.000000000000e+00
  -1.729911273244e-02 -1.134087610603e-01 0.000000000000e+00
  -1.944192938643e-02 -7.014968692779e-02 0.000000000000e+00
  -2.038830414345e-02 -3.249174136877e-02 0.000000000000e+00
  -2.012604045144e-02 6.814387972745e-03 0.000000000000e+00
  -1.863093341634e-02 5.490167973897e-02 0.000000000000e+00
  -1.589343696884e-02 1.147685803629e-01 0.000000000000e+00
  -1.199660055262e-02 1.831903521596e-01 0.000000000000e+00
  -7.197667793711e-03 2.515212096677e-01 0.000000000000e+00
  -1.958507258261e-03 3.089062233000e-01 0.000000000000e+00
  3.106394099240e-03 3.463198909165e-01 0.000000000000e+00
  7.354519012158e-03 3.596116768984e-01 0.000000000000e+00
  1.026610082761e-02 3.503760982281e-01 0.000000000000e+00
  1.156153366087e-02 3.245557139119e-01 0.000000000000e+00
  1.124197554897e-02 2.896698683467e-01 0.000000000000e+00
  9.545807718950e-03 2.520229718025e-01 0.000000000000e+00
  6.850360369526e-03 2.150580970094e-01 0.000000000000e+00
  3.566965998387e-03 1.793501880263e-01 0.000000000000e+00
  7.019623151606e-05 1.439249599583e-01 0.000000000000e+00
  -3.323750171421e-03 1.080160819498e-01 0.000000000000e+00
  -6.342321538382e-03 7.228189384818e-02 0.000000000000e+00
  -8.732696687336e-03 3.891211489189e-02 0.000000000000e+00
  -1.025198179006e-02 1.072806804872e-02 0.000000000000e+00
  -1.067988193058e-02 -1.007487166669e-02 0.000000000000e+00
  -9.848217159857e-03 -2.279503143377e-02 0.000000000000e+00
  -7.676411345659e-03 -2.831786025610e-02 0.000000000000e+00
  -4.204455966278e-03 -2.856485160449e-02 0.000000000000e+00
  3.821647297582e-04 -2.571213223383e-02 0.000000000000e+00
  5.742618534200e-03 -2.152103414506e-02 0.000000000000e+00
  1.139680656594e-02 -1.689995295833e-02 0.000000000000e+00
  1.677699805183e-02 -1.172101716169e-02 0.000000000000e+00
  2.131350734904e-02 -4.984444950906e-03 0.000000000000e+00
  2.453584740162e-02 4.565760040985e-03 0.000000000000e+00
  2.615875068920e-02 1.750534302310e-02 0.000000000000e+00
  2.612477225133e-02 3.295201715982e-02 0.000000000000e+00
  2.459179117862e-02 4.851942231269e-02 0.000000000000e+00
  2.187486170021e-02 6.119097898926e-02 0.000000000000e+00
  1.836564467015e-02 6.865416267728e-02 0.000000000000e+00
  1.445366053216e-02 7.024322012283e-02 0.000000000000e+00
  1.046544576121e-02 6.685883730375e-02 0.000000000000e+00
  6.628121450447e-03 5.992770289392e-02 0.000000000000e+00
  3.057864883407e-03 5.011446256744e-02 0.000000000000e+00
  -2.290833562588e-04 3.664802601161e-02 0.000000000000e+00
  -3.287666653479e-03 1.772391389401e-02 0.000000000000e+00
  -6.205164986269e-03 -8.186515279840e-03 0.000000000000e+00
  -9.061579110515e-03 -4.076523848612e-02 0.000000000000e+00
  -1.189758929002e-02 -7.678504187451e-02 0.000000000000e+00
  -1.469546111195e-02 -1.101216792318e-01 0.000000000000e+00
  -1.737512579498e-02 -1.330043600047e-01 0.000000000000e+00
  -1.980514733453e-02 -1.382049141785e-01 0.000000000000e+00
  -2.182589183407e-02 -1.214759173600e-01 0.000000000000e+00
  -2.327969822418e-02 -8.336797770798e-02 0.000000000000e+00
  -2.404119189889e-02 -2.968905495938e-02 0.000000000000e+00
  0.000000000000e+00 0.000000000000e+00 0.000000000000e+00
  0.000000000000e+00 0.000000000000e+00 0.000000000000e+00
  -8.241246452671e-02 2.849536474072e-02 0.000000000000e+00
  -8.010088716602e-02 8.010088716602e-02 0.000000000000e+00
  -7.559770412343e-02 1.169453165893e-01 0.000000000000e+00
  -6.915109491801e-02 1.333888339321e-01 0.000000000000e+00
  -6.113191850394e-02 1.286928612029e-01 0.000000000000e+00
  -5.198990926927e-02 1.067062481137e-01 0.000000000000e+00
  -4.216763478603e-02 7.427841246405e-02 0.000000000000e+00
  -3.199759565919e-02 3.900441224384e-02 0.000000000000e+00
  -2.162612040071e-02 7.073628477994e-03 0.000000000000e+00
  -1.100356176395e-02 -1.809712354323e-02 0.000000000000e+00
  4.399846344280e-05 -3.606626248279e-02 0.000000000000e+00
  1.167902806359e-02 -4.845202288352e-02 0.000000000000e+00
  2.389703674185e-02 -5.737758692804e-02 0.000000000000e+00
  3.640494927384e-02 -6.403185428173e-02 0.000000000000e+00
  4.857545267605e-02 -6.805134660041e-02 0.000000000000e+00
  5.949343398168e-02 -6.799627604444e-02 0.000000000000e+00
  6.808400503965e-02 -6.255954532248e-02 0.000000000000e+00
  7.329559619425e-02 -5.169795634415e-02 0.000000000000e+00
  7.430635145995e-02 -3.694715098379e-02 0.000000000000e+00
  7.071869667486e-02 -2.076010136578e-02 0.000000000000e+00
  6.269975243183e-02 -5.377023165540e-03 0.000000000000e+00
  5.102131052570e-02 8.006649939510e-03 0.000000000000e+00
  3.696742430681e-02 1.931617538485e-02 0.000000000000e+00
  2.211663553064e-02 2.902843575411e-02 0.000000000000e+00
  8.055072960744e-03 3.742968199184e-02 0.000000000000e+00
  -3.892677251919e-03 4.411748544938e-02 0.000000000000e+00
  -1.283741327649e-02 4.788068025070e-02 0.000000000000e+00
  -1.837151647578e-02 4.689513231153e-02 0.000000000000e+00
  -2.050793116952e-02 3.917081073425e-02 0.000000000000e+00
  -1.956238509521e-02 2.321345629045e-02 0.000000000000e+00
  -1.602680577661e-02 -1.254579009948e-03 0.000000000000e+00
  -1.046160134916e-02 -3.287028293547e-02 0.000000000000e+00
  -3.418736353616e-03 -6.888047247531e-02 0.000000000000e+00
  4.594657352173e-03 -1.061284497476e-01 0.000000000000e+00
  1.310101722764e-02 -1.423427236455e-01 0.000000000000e+00
  2.158537657048e-02 -1.769888786208e-01 0.000000000000e+00
  2.940413081916e-02 -2.110963296974e-01 0.000000000000e+00
  3.572608722542e-02 -2.460190304366e-01 0.000000000000e+00
  3.956884226426e-02 -2.817105685856e-01 0.000000000000e+00
  3.996229942424e-02 -3.154375273445e-01 0.000000000000e+00
  3.620987522238e-02 -3.417371031217e-01 0.000000000000e+00
  2.815638861032e-02 -3.538896879691e-01 0.000000000000e+00
  1.634567082943e-02 -3.464500989033e-01 0.000000000000e+00
  1.981147514517e-03 -3.177806172532e-01 0.000000000000e+00
  -1.331925265530e-02 -2.713537857215e-01 0.000000000000e+00
  -2.789134968351e-02 -2.149962353447e-01 0.000000000000e+00
  -4.037442501582e-02 -1.581312628038e-01 0.000000000000e+00
  -4.990665401383e-02 -1.080845985768e-01 0.000000000000e+00
  -5.610457657747e-02 -6.713311013784e-02 0.000000000000e+00
  -5.887376580113e-02 -3.179275413973e-02 0.000000000000e+00
  -5.818458082061e-02 5.163952087838e-03 0.000000000000e+00
  -5.396095696288e-02 5.083338472420e-02 0.000000000000e+00
  -4.615944483144e-02 1.082978667692e-01 0.000000000000e+00
  -3.499803526597e-02 1.746028197226e-01 0.000000000000e+00
  -2.119703543477e-02 2.415088094512e-01 0.000000000000e+00
  -6.073408372262e-03 2.985558358470e-01 0.000000000000e+00
  8.602934055060e-03 3.369290345113e-01 0.000000000000e+00
  2.096484709456e-02 3.523924952814e-01 0.000000000000e+00
  2.948434352418e-02 3.461642015378e-01 0.000000000000e+00
  3.331868925035e-02 3.236378319904e-01 0.000000000000e+00
  3.243893538712e-02 2.917870622016e-01 0.000000000000e+00
  2.751537710714e-02 2.565255040261e-01 0.000000000000e+00
  1.964015697651e-02 2.211262322432e-01 0.000000000000e+00
  1.002323407667e-02 1.861823700479e-01 0.000000000000e+00
  -2.194653312147e-04 1.508322471013e-01 0.000000000000e+00
  -1.013909209046e-02 1.144223679627e-01 0.000000000000e+00
  -1.892131156877e-02 7.767639867683e-02 0.000000000000e+00
  -2.582413603257e-02 4.281080967390e-02 0.000000000000e+00
  -3.015277088295e-02 1.267729321868e-02 0.000000000000e+00
  -3.129570993343e-02 -1.045325764622e-02 0.000000000000e+00
  -2.880576861799e-02 -2.573825154068e-02 0.000000000000e+00
  -2.249459073409e-02 -3.385762384742e-02 0.000000000000e+00
  -1.251695689477e-02 -3.647467723192e-02 0.000000000000e+00
  5.685658544147e-04 -3.547445005164e-02 0.000000000000e+00
  1.577943084087e-02 -3.233003511815e-02 0.000000000000e+00
  3.175776460122e-02 -2.772347377732e-02 0.000000000000e+00
  4.691465035414e-02 -2.143457358150e-02 0.000000000000e+00
  5.966709502377e-02 -1.255984249795e-02 0.000000000000e+00
  6.871709233889e-02 -1.311797796687e-04 0.000000000000e+00
  7.328775760031e-02 1.600871429476e-02 0.000000000000e+00
  7.323761410216e-02 3.453276782418e-02 0.000000000000e+00
  6.902104489106e-02 5.268822193214e-02 0.000000000000e+00
  6.152278249653e-02 6.723737124275e-02 0.000000000000e+00
  5.183273079113e-02 7.580703915925e-02 0.000000000000e+00
  4.102889026826e-02 7.780616830172e-02 0.000000000000e+00
  3.001162594412e-02 7.430136821996e-02 0.000000000000e+00
  1.940503416572e-02 6.692908806689e-02 0.000000000000e+00
  9.525274551017e-03 5.656309357621e-02 0.000000000000e+00
  4.096733671741e-04 4.260194442634e-02 0.000000000000e+00
  -8.104838834991e-03 2.334309097866e-02 0.000000000000e+00
  -1.627327737485e-02 -2.719755491839e-03 0.000000000000e+00
  -2.432937809603e-02 -3.531948342870e-02 0.000000000000e+00
  -3.239173066419e-02 -7.133243418426e-02 0.000000000000e+00
  -4.040616312979e-02 -1.047619826345e-01 0.000000000000e+00
  -4.813252405202e-02 -1.279580309967e-01 0.000000000000e+00
  -5.517620704925e-02 -1.337775386497e-01 0.000000000000e+00
  -6.105696571066e-02 -1.180017897278e-01 0.000000000000e+00
  -6.529954522518e-02 -8.114571943551e-02 0.000000000000e+00
  -6.752539236012e-02 -2.892397242219e-02 0.000000000000e+00
  0.000000000000e+00 0.000000000000e+00 0.000000000000e+00
  0.000000000000e+00 0.000000000000e+00 0.000000000000e+00
  -1.206672900688e-01 2.696499694308e-02 0.000000000000e+00
  -1.169453165893e-01 7.559770412343e-02 0.000000000000e+00
  -1.097391946515e-01 1.097391946515e-01 0.000000000000e+00
  -9.952423239403e-02 1.239333844070e-01 0.000000000000e+00
  -8.698320766454e-02 1.175881095844e-01 0.000000000000e+00
  -7.291571959916e-02 9.460150243213e-02 0.000000000000e+00
  -5.808683663874e-02 6.173200070192e-02 0.000000000000e+00
  -4.305756297344e-02 2.635151121382e-02 0.000000000000e+00
  -2.806494054572e-02 -5.637568178192e-03 0.000000000000e+00
  -1.301091728107e-02 -3.106250878844e-02 0.000000000000e+00
  2.420034587981e-03 -4.957938933402e-02 0.000000000000e+00
  1.854579391597e-02 -6.269968496042e-02 0.000000000000e+00
  3.544545743415e-02 -7.224759704758e-02 0.000000000000e+00
  5.277491882807e-02 -7.899921808810e-02 0.000000000000e+00
  6.969953938809e-02 -8.217910675629e-02 0.000000000000e+00
  8.496148903978e-02 -8.004844684587e-02 0.000000000000e+00
  9.705995333196e-02 -7.119640987121e-02 0.000000000000e+00
  1.045038027002e-01 -5.571653231824e-02 0.000000000000e+00
  1.060956020120e-01 -3.553112958720e-02 0.000000000000e+00
  1.012049967453e-01 -1.369786271056e-02 0.000000000000e+00
  8.997718920370e-02 6.807489963833e-03 0.000000000000e+00
  7.341011238020e-02 2.406765553978e-02 0.000000000000e+00
  5.324831408148e-02 3.747085430219e-02 0.000000000000e+00
  3.169540201441e-02 4.727745768001e-02 0.000000000000e+00
  1.101952730592e-02 5.391809734433e-02 0.000000000000e+00
  -6.826416581659e-03 5.742276419715e-02 0.000000000000e+00
  -2.045973071728e-02 5.715345166314e-02 0.000000000000e+00
  -2.915162413511e-02 5.184835751625e-02 0.000000000000e+00
  -3.276691802999e-02 3.996929411827e-02 0.000000000000e+00
  -3.162611393824e-02 2.032862274063e-02 0.000000000000e+00
  -2.634940586132e-02 -7.182032855007e-03 0.000000000000e+00
  -1.771437644286e-02 -4.114306293492e-02 0.000000000000e+00
  -6.543173053346e-03 -7.882176085804e-02 0.000000000000e+00
  6.360149086342e-03 -1.171038772046e-01 0.000000000000e+00
  2.019633069385e-02 -1.537098376607e-01 0.000000000000e+00
  3.407677423559e-02 -1.879865674711e-01 0.000000000000e+00
  4.689303329920e-02 -2.207336541269e-01 0.000000000000e+00
  5.724289800424e-02 -2.530535270657e-01 0.000000000000e+00
  6.351258426091e-02 -2.847885131704e-01 0.000000000000e+00
  6.415786322890e-02 -3.133983187669e-01 0.000000000000e+00
  5.812572195709e-02 -3.339917460556e-01 0.000000000000e+00
  4.526433112561e-02 -3.407201673637e-01 0.000000000000e+00
  2.653860508395e-02 -3.290831753956e-01 0.000000000000e+00
  3.927581701588e-03 -2.981719937123e-01 0.000000000000e+00
  -1.999227557973e-02 -2.517421514093e-01 0.000000000000e+00
  -4.263506779231e-02 -1.973929799834e-01 0.000000000000e+00
  -6.194030758302e-02 -1.439462026074e-01 0.000000000000e+00
  -7.665070998446e-02 -9.802702697220e-02 0.000000000000e+00
  -8.625005833749e-02 -6.139341049419e-02 0.000000000000e+00
  -9.064582457974e-02 -3.036749808913e-02 0.000000000000e+00
  -8.980945730582e-02 2.213143883597e-03 0.000000000000e+00
  -8.360271247994e-02 4.335382420703e-02 0.000000000000e+00
  -7.190606720078e-02 9.627926970351e-02 0.000000000000e+00
  -5.498413779815e-02 1.585380775321e-01 0.000000000000e+00
  -3.387459955503e-02 2.226630131932e-01 0.000000000000e+00
  -1.055476111953e-02 2.789581661827e-01 0.000000000000e+00
  1.225950488846e-02 3.190360953025e-01 0.000000000000e+00
  3.164995773021e-02 3.385330681897e-01 0.000000000000e+00
  4.517271295052e-02 3.379813766030e-01 0.000000000000e+00
  5.141469133610e-02 3.217443324943e-01 0.000000000000e+00
  5.022753798830e-02 2.957474686524e-01 0.000000000000e+00
  4.258614549061e-02 2.651300481574e-01 0.000000000000e+00
  3.018088530482e-02 2.328021682864e-01 0.000000000000e+00
  1.494569399809e-02 1.993585481132e-01 0.000000000000e+00
  -1.292149015357e-03 1.641366113927e-01 0.000000000000e+00
  -1.695803647345e-02 1.267035178480e-01 0.000000000000e+00
  -3.071105414972e-02 8.793048592174e-02 0.000000000000e+00
  -4.136955285082e-02 5.011804557997e-02 0.000000000000e+00
  -4.788180006493e-02 1.621093936952e-02 0.000000000000e+00
  -4.937956442876e-02 -1.134620038668e-02 0.000000000000e+00
  -4.528977120881e-02 -3.142504333756e-02 0.000000000000e+00
  -3.545591135419e-02 -4.431586978999e-02 0.000000000000e+00
  -2.023544015224e-02 -5.121453633105e-02 0.000000000000e+00
  -5.595972965631e-04 -5.349595655755e-02 0.000000000000e+00
  2.206010627953e-02 -5.213909717486e-02 0.000000000000e+00
  4.561383970944e-02 -4.744647891090e-02 0.000000000000e+00
  6.780220558051e-02 -3.905682007192e-02 0.000000000000e+00
  8.637121205676e-02 -2.625904715341e-02 0.000000000000e+00
  9.950407133180e-02 -8.614831714357e-03 0.000000000000e+00
  1.061484203427e-01 1.327735195716e-02 0.000000000000e+00
  1.061654512496e-01 3.729724275301e-02 0.000000000000e+00
  1.002571689845e-01 6.004859847949e-02 0.000000000000e+00
  8.971704028612e-02 7.791538578830e-02 0.000000000000e+00
  7.610441246357e-02 8.843170414165e-02 0.000000000000e+00
  6.094072944301e-02 9.114902686273e-02 0.000000000000e+00
  4.548442078584e-02 8.743208264025e-02 0.000000000000e+00
  3.059919410499e-02 7.929019210585e-02 0.000000000000e+00
  1.671048084034e-02 6.797046241660e-02 0.000000000000e+00
  3.842330545758e-03 5.317832706438e-02 0.000000000000e+00
  -8.275452140641e-03 3.339900322918e-02 0.000000000000e+00
  -2.005103296327e-02 7.168351620128e-03 0.000000000000e+00
  -3.185873466422e-02 -2.534378811854e-02 0.000000000000e+00
  -4.388910049668e-02 -6.121541109378e-02 0.000000000000e+00
  -5.605138057088e-02 -9.470229318522e-02 0.000000000000e+00
  -6.794662999666e-02 -1.183961100980e-01 0.000000000000e+00
  -7.891587347456e-02 -1.253265330732e-01 0.000000000000e+00
  -8.815289250384e-02 -1.113350176136e-01 0.000000000000e+00
  -9.485624142173e-02 -7.686656311735e-02 0.000000000000e+00
  -9.838527554493e-02 -2.744824748222e-02 0.000000000000e+00
  0.000000000000e+00 0.000000000000e+00 0.000000000000e+00
  0.000000000000e+00 0.000000000000e+00 0.000000000000e+00
  -1.383154798677e-01 2.476298673332e-02 0.000000000000e+00
  -1.333888339321e-01 6.915109491801e-02 0.000000000000e+00
  -1.239333844070e-01 9.952423239403e-02 0.000000000000e+00
  -1.107184175875e-01 1.107184175875e-01 0.000000000000e+00
  -9.480474034213e-02 1.023483744290e-01 0.000000000000e+00
  -7.738662145863e-02 7.835563063862e-02 0.000000000000e+00
  -5.956773902787e-02 4.533010710425e-02 0.000000000000e+00
  -4.213065728949e-02 1.028704940782e-02 0.000000000000e+00
  -2.538471426804e-02 -2.131167182137e-02 0.000000000000e+00
  -9.161650591906e-03 -4.666549208605e-02 0.000000000000e+00
  7.023523451701e-03 -6.559253194907e-02 0.000000000000e+00
  2.369373538162e-02 -7.948251360328e-02 0.000000000000e+00
  4.110808218434e-02 -8.977877872562e-02 0.000000000000e+00
  5.903929210640e-02 -9.672870772603e-02 0.000000000000e+00
  7.669632189754e-02 -9.903126746953e-02 0.000000000000e+00
  9.279995711205e-02 -9.456187099883e-02 0.000000000000e+00
  1.057740122806e-01 -8.175550517898e-02 0.000000000000e+00
  1.140035178674e-01 -6.083079196554e-02 0.000000000000e+00
  1.161242678625e-01 -3.412941924675e-02 0.000000000000e+00
  1.113146691874e-01 -5.399369109242e-03 0.000000000000e+00
  9.954235099115e-02 2.150912210036e-02 0.000000000000e+00
  8.169098404883e-02 4.378446716907e-02 0.000000000000e+00