# vtk DataFile Version 3.0
Karman Output
ASCII
DATASET RECTILINEAR_GRID
DIMENSIONS 101 101 1
X_COORDINATES 101 float
   0.000000000000e+00   9.900990099010e-03   1.980198019802e-02   2.970297029703e-02   3.960396039604e-02   4.950495049505e-02   5.940594059406e-02   6.930693069307e-02   7.920792079208e-02   8.910891089109e-02   9.900990099010e-02   1.089108910891e-01   1.188118811881e-01   1.287128712871e-01   1.386138613861e-01   1.485148514851e-01   1.584158415842e-01   1.683168316832e-01   1.782178217822e-01   1.881188118812e-01   1.980198019802e-01   2.079207920792e-01   2.178217821782e-01   2.277227722772e-01   2.376237623762e-01   2.475247524752e-01   2.574257425743e-01   2.673267326733e-01   2.772277227723e-01   2.871287128713e-01   2.970297029703e-01   3.069306930693e-01   3.168316831683e-01   3.267326732673e-01   3.366336633663e-01   3.465346534653e-01   3.564356435644e-01   3.663366336634e-01   3.762376237624e-01   3.861386138614e-01   3.960396039604e-01   4.059405940594e-01   4.158415841584e-01   4.257425742574e-01   4.356435643564e-01   4.455445544554e-01   4.554455445545e-01   4.653465346535e-01   4.752475247525e-01   4.851485148515e-01   4.950495049505e-01   5.049504950495e-01   5.148514851485e-01   5.247524752475e-01   5.346534653465e-01   5.445544554455e-01   5.544554455446e-01   5.643564356436e-01   5.742574257426e-01   5.841584158416e-01   5.940594059406e-01   6.039603960396e-01   6.138613861386e-01   6.237623762376e-01   6.336633663366e-01   6.435643564356e-01   6.534653465347e-01   6.633663366337e-01   6.732673267327e-01   6.831683168317e-01   6.930693069307e-01   7.029702970297e-01   7.128712871287e-01   7.227722772277e-01   7.326732673267e-01   7.425742574257e-01   7.524752475248e-01   7.623762376238e-01   7.722772277228e-01   7.821782178218e-01   7.920792079208e-01   8.019801980198e-01   8.118811881188e-01   8.217821782178e-01   8.316831683168e-01   8.415841584158e-01   8.514851485149e-01   8.613861386139e-01   8.712871287129e-01   8.811881188119e-01   8.910891089109e-01   9.009900990099e-01   9.108910891089e-01   9.207920792079e-01   9.306930693069e-01   9.405940594059e-01   9.504950495050e-01   9.603960396040e-01   9.702970297030e-01   9.801980198020e-01   9.900990099010e-01
Y_COORDINATES 101 float
   0.000000000000e+00   9.900990099010e-03   1.980198019802e-02   2.970297029703e-02   3.960396039604e-02   4.950495049505e-02   5.940594059406e-02   6.930693069307e-02   7.920792079208e-02   8.910891089109e-02   9.900990099010e-02   1.089108910891e-01   1.188118811881e-01   1.287128712871e-01   1.386138613861e-01   1.485148514851e-01   1.584158415842e-01   1.683168316832e-01   1.782178217822e-01   1.881188118812e-01   1.980198019802e-01   2.079207920792e-01   2.178217821782e-01   2.277227722772e-01   2.376237623762e-01   2.475247524752e-01   2.574257425743e-01   2.673267326733e-01   2.772277227723e-01   2.871287128713e-01   2.970297029703e-01   3.069306930693e-01   3.168316831683e-01   3.267326732673e-01   3.366336633663e-01   3.465346534653e-01   3.564356435644e-01   3.663366336634e-01   3.762376237624e-01   3.861386138614e-01   3.960396039604e-01   4.059405940594e-01   4.158415841584e-01   4.257425742574e-01   4.356435643564e-01   4.455445544554e-01   4.554455445545e-01   4.653465346535e-01   4.752475247525e-01   4.851485148515e-01   4.950495049505e-01   5.049504950495e-01   5.148514851485e-01   5.247524752475e-01   5.346534653465e-01   5.445544554455e-01   5.544554455446e-01   5.643564356436e-01   5.742574257426e-01   5.841584158416e-01   5.940594059406e-01   6.039603960396e-01   6.138613861386e-01   6.237623762376e-01   6.336633663366e-01   6.435643564356e-01   6.534653465347e-01   6.633663366337e-01   6.732673267327e-01   6.831683168317e-01   6.930693069307e-01   7.029702970297e-01   7.128712871287e-01   7.227722772277e-01   7.326732673267e-01   7.425742574257e-01   7.524752475248e-01   7.623762376238e-01   7.722772277228e-01   7.821782178218e-01   7.920792079208e-01   8.019801980198e-01   8.118811881188e-01   8.217821782178e-01   8.316831683168e-01   8.415841584158e-01   8.514851485149e-01   8.613861386139e-01   8.712871287129e-01   8.811881188119e-01   8.910891089109e-01   9.009900990099e-01   9.108910891089e-01   9.207920792079e-01   9.306930693069e-01   9.405940594059e-01   9.504950495050e-01   9.603960396040e-01   9.702970297030e-01   9.801980198020e-01   9.900990099010e-01
Z_COORDINATES 1 float
  0.000000000000e+00
POINT_DATA 10201
VECTORS E_field float
  0.000000000000e+00 0.000000000000e+00 0.000000000000e+00
  0.000000000000e+00 0.000000000000e+00 0.000000000000e+00
  0.000000000000e+00 0.000000000000e+00 0.000000000000e+00
  0.000000000000e+00 0.000000000000e+00 0.000000000000e+00
  0.000000000000e+00 0.000000000000e+00 0.000000000000e+00
  0.000000000000e+00 0.000000000000e+00 0.000000000000e+00
  0.000000000000e+00 0.000000000000e+00 0.000000000000e+00
  0.000000000000e+00 0.000000000000e+00 0.000000000000e+00
  0.000000000000e+00 0.000000000000e+00 0.000000000000e+00
  0.000000000000e+00 0.000000000000e+00 0.000000000000e+00
  0.000000000000e+00 0.000000000000e+00 0.000000000000e+00
  0.000000000000e+00 0.000000000000e+00 0.000000000000e+00
  0.000000000000e+00 0.000000000000e+00 0.000000000000e+00
  0.000000000000e+00 0.000000000000e+00 0.000000000000e+00
  0.000000000000e+00 0.000000000000e+00 0.000000000000e+00
  0.000000000000e+00 0.000000000000e+00 0.000000000000e+00
  0.000000000000e+00 0.000000000000e+00 0.000000000000e+00
  0.000000000000e+00 0.000000000000e+00 0.000000000000e+00
  0.000000000000e+00 0.000000000000e+00 0.000000000000e+00
  0.000000000000e+00 0.000000000000e+00 0.000000000000e+00
  0.000000000000e+00 0.000000000000e+00 0.000000000000e+00
  0.000000000000e+00 0.000000000000e+00 0.000000000000e+00
  0.000000000000e+00 0.000000000000e+00 0.000000000000e+00
  0.000000000000e+00 0.000000000000e+00 0.000000000000e+00
  0.000000000000e+00 0.000000000000e+00 0.000000000000e+00
  0.000000000000e+00 0.000000000000e+00 0.000000000000e+00
  0.000000000000e+00 0.000000000000e+00 0.000000000000e+00
  0.000000000000e+00 0.000000000000e+00 0.000000000000e+00
  0.000000000000e+00 0.000000000000e+00 0.000000000000e+00
  0.000000000000e+00 0.000000000000e+00 0.000000000000e+00
  0.000000000000e+00 0.000000000000e+00 0.000000000000e+00
  0.000000000000e+00 0.000000000000e+00 0.000000000000e+00
  0.000000000000e+00 0.000000000000e+00 0.000000000000e+00
  0.000000000000e+00 0.000000000000e+00 0.000000000000e+00
  0.000000000000e+00 0.000000000000e+00 0.000000000000e+00
  0.000000000000e+00 0.000000000000e+00 0.000000000000e+00
  0.000000000000e+00 0.000000000000e+00 0.000000000000e+00
  0.000000000000e+00 0.000000000000e+00 0.000000000000e+00
  0.000000000000e+00 0.000000000000e+00 0.000000000000e+00
  0.000000000000e+00 0.000000000000e+00 0.000000000000e+00
  0.000000000000e+00 0.000000000000e+00 0.000000000000e+00
  0.000000000000e+00 0.000000000000e+00 0.000000000000e+00
  0.000000000000e+00 0.000000000000e+00 0.000000000000e+00
  0.000000000000e+00 0.000000000000e+00 0.000000000000e+00
  0.000000000000e+00 0.000000000000e+00 0.000000000000e+00
  0.000000000000e+00 0.000000000000e+00 0.000000000000e+00
  0.000000000000e+00 0.000000000000e+00 0.000000000000e+00
  0.000000000000e+00 0.000000000000e+00 0.000000000000e+00
  0.000000000000e+00 0.000000000000e+00 0.000000000000e+00
  0.000000000000e+00 0.000000000000e+00 0.000000000000e+00
  0.000000000000e+00 0.000000000000e+00 0.000000000000e+00
  0.000000000000e+00 0.000000000000e+00 0.000000000000e+00
  0.000000000000e+00 0.000000000000e+00 0.000000000000e+00
  0.000000000000e+00 0.000000000000e+00 0.000000000000e+00
  0.000000000000e+00 0.000000000000e+00 0.000000000000e+00
  0.000000000000e+00 0.000000000000e+00 0.000000000000e+00
  0.000000000000e+00 0.000000000000e+00 0.000000000000e+00
  0.000000000000e+00 0.000000000000e+00 0.000000000000e+00
  0.000000000000e+00 0.000000000000e+00 0.000000000000e+00
  0.000000000000e+00 0.000000000000e+00 0.000000000000e+00
  0.000000000000e+00 0.000000000000e+00 0.000000000000e+00
  0.000000000000e+00 0.000000000000e+00 0.000000000000e+00
  0.000000000000e+00 0.000000000000e+00 0.000000000000e+00
  0.000000000000e+00 0.000000000000e+00 0.000000000000e+00
  0.000000000000e+00 0.000000000000e+00 0.000000000000e+00
  0.000000000000e+00 0.000000000000e+00 0.000000000000e+00
  0.000000000000e+00 0.000000000000e+00 0.000000000000e+00
  0.000000000000e+00 0.000000000000e+00 0.000000000000e+00
  0.000000000000e+00 0.000000000000e+00 0.000000000000e+00
  0.000000000000e+00 0.000000000000e+00 0.000000000000e+00
  0.000000000000e+00 0.000000000000e+00 0.000000000000e+00
  0.000000000000e+00 0.000000000000e+00 0.000000000000e+00
  0.000000000000e+00 0.000000000000e+00 0.000000000000e+00
  0.000000000000e+00 0.000000000000e+00 0.000000000000e+00
  0.000000000000e+00 0.000000000000e+00 0.000000000000e+00
  0.000000000000e+00 0.000000000000e+00 0.000000000000e+00
  0.000000000000e+00 0.000000000000e+00 0.000000000000e+00
  0.000000000000e+00 0.000000000000e+00 0.000000000000e+00
  0.000000000000e+00 0.000000000000e+00 0.000000000000e+00
  0.000000000000e+00 0.000000000000e+00 0.000000000000e+00
  0.000000000000e+00 0.000000000000e+00 0.000000000000e+00
  0.000000000000e+00 0.000000000000e+00 0.000000000000e+00
  0.000000000000e+00 0.000000000000e+00 0.000000000000e+00
  0.000000000000e+00 0.000000000000e+00 0.000000000000e+00
  0.000000000000e+00 0.000000000000e+00 0.000000000000e+00
  0.000000000000e+00 0.000000000000e+00 0.000000000000e+00
  0.000000000000e+00 0.000000000000e+00 0.000000000000e+00
  0.000000000000e+00 0.000000000000e+00 0.000000000000e+00
  0.000000000000e+00 0.000000000000e+00 0.000000000000e+00
  0.000000000000e+00 0.000000000000e+00 0.000000000000e+00
  0.000000000000e+00 0.000000000000e+00 0.000000000000e+00
  0.000000000000e+00 0.000000000000e+00 0.000000000000e+00
  0.000000000000e+00 0.000000000000e+00 0.000000000000e+00
  0.000000000000e+00 0.000000000000e+00 0.000000000000e+00
  0.000000000000e+00 0.000000000000e+00 0.000000000000e+00
  0.000000000000e+00 0.000000000000e+00 0.000000000000e+00
  0.000000000000e+00 0.000000000000e+00 0.000000000000e+00
  0.000000000000e+00 0.000000000000e+00 0.000000000000e+00
  0.000000000000e+00 0.000000000000e+00 0.000000000000e+00
  0.000000000000e+00 0.000000000000e+00 0.000000000000e+00
  0.000000000000e+00 0.000000000000e+00 0.000000000000e+00
  0.000000000000e+00 0.000000000000e+00 0.000000000000e+00
  -1.412626468396e-03 1.412626468396e-03 0.000000000000e+00
  -9.237796905353e-04 7.568990297832e-03 0.000000000000e+00
  1.088162498386e-04 2.188408844569e-02 0.000000000000e+00
  1.758082094248e-03 4.456650799422e-02 0.000000000000e+00
  4.054872456830e-03 7.062245059509e-02 0.000000000000e+00
  6.926606168435e-03 9.168853299285e-02 0.000000000000e+00
  1.015721488026e-02 9.936089942690e-02 0.000000000000e+00
  1.338558878180e-02 8.852231381241e-02 0.000000000000e+00
  1.615041555354e-02 5.936071218871e-02 0.000000000000e+00
  1.797712077795e-02 1.749104141624e-02 0.000000000000e+00
  1.848824661451e-02 -2.763082851788e-02 0.000000000000e+00
  1.750552443684e-02 -6.532682392960e-02 0.000000000000e+00
  1.510714521071e-02 -8.653485430270e-02 0.000000000000e+00
  1.161398856829e-02 -8.612796582533e-02 0.000000000000e+00
  7.503724275603e-03 -6.414203201979e-02 0.000000000000e+00
  3.281669186273e-03 -2.559015348602e-02 0.000000000000e+00
  -6.436803159175e-04 2.108968910135e-02 0.000000000000e+00
  -4.035900049616e-03 6.647370935390e-02 0.000000000000e+00
  -6.836779897798e-03 1.026690857180e-01 0.000000000000e+00
  -9.115589311502e-03 1.250649940146e-01 0.000000000000e+00
  -1.099570402182e-02 1.328025270477e-01 0.000000000000e+00
  -1.259443523404e-02 1.280041874074e-01 0.000000000000e+00
  -1.399564221948e-02 1.143017106504e-01 0.000000000000e+00
  -1.525266049999e-02 9.537366720104e-02 0.000000000000e+00
  -1.640429427831e-02 7.398906106624e-02 0.000000000000e+00
  -1.748554262691e-02 5.164795333117e-02 0.000000000000e+00
  -1.852473515154e-02 2.862650691117e-02 0.000000000000e+00
  -1.953117346312e-02 4.244086380708e-03 0.000000000000e+00
  -2.048353809348e-02 -2.263708094828e-02 0.000000000000e+00
  -2.132615163811e-02 -5.278007430391e-02 0.000000000000e+00
  -2.197197677298e-02 -8.550489846326e-02 0.000000000000e+00
  -2.230606672359e-02 -1.178357177927e-01 0.000000000000e+00
  -2.218627866912e-02 -1.444910615868e-01 0.000000000000e+00
  -2.144704213373e-02 -1.590814564141e-01 0.000000000000e+00
  -1.991839997029e-02 -1.562592028704e-01 0.000000000000e+00
  -1.746874057367e-02 -1.339743196564e-01 0.000000000000e+00
  -1.406547191722e-02 -9.482868640716e-02 0.000000000000e+00
  -9.831770370154e-03 -4.590123120857e-02 0.000000000000e+00
  -5.070753048840e-03 2.902242854316e-03 0.000000000000e+00
  -2.370093752685e-04 4.134813212785e-02 0.000000000000e+00
  4.144174799961e-03 6.141151977050e-02 0.000000000000e+00
  7.588004746693e-03 5.922047851257e-02 0.000000000000e+00
  9.757804020065e-03 3.607550185351e-02 0.000000000000e+00
  1.053707917093e-02 -1.610481973444e-03 0.000000000000e+00
  1.004736833117e-02 -4.355172005024e-02 0.000000000000e+00
  8.611222207272e-03 -7.798121614204e-02 0.000000000000e+00
  6.675391884393e-03 -9.481139342052e-02 0.000000000000e+00
  4.717733122515e-03 -8.870880719962e-02 0.000000000000e+00
  3.160361824176e-03 -6.097443622364e-02 0.000000000000e+00
  2.302995767795e-03 -1.937132089098e-02 0.000000000000e+00
  2.279921576433e-03 2.422444039320e-02 0.000000000000e+00
  3.038396501482e-03 5.759100250396e-02 0.000000000000e+00
  4.338337316771e-03 7.199728311513e-02 0.000000000000e+00
  5.778970896202e-03 6.475029048459e-02 0.000000000000e+00
  6.859983422572e-03 3.966281736895e-02 0.000000000000e+00
  7.077456597255e-03 5.505010536361e-03 0.000000000000e+00
  6.040280337601e-03 -2.678408450322e-02 0.000000000000e+00
  3.578247791139e-03 -4.709755840478e-02 0.000000000000e+00
  -1.929905017406e-04 -4.857038033611e-02 0.000000000000e+00
  -4.877604184411e-03 -2.901548606152e-02 0.000000000000e+00
  -9.883141615553e-03 8.696581108610e-03 0.000000000000e+00
  -1.456216395103e-02 5.731306341622e-02 0.000000000000e+00
  -1.836893996859e-02 1.068890157703e-01 0.000000000000e+00
  -2.098031523881e-02 1.472486565998e-01 0.000000000000e+00
  -2.234328620861e-02 1.706148378841e-01 0.000000000000e+00
  -2.264164051450e-02 1.735428363214e-01 0.000000000000e+00
  -2.220555944026e-02 1.574211112374e-01 0.000000000000e+00
  -2.140518677229e-02 1.273645266562e-01 0.000000000000e+00
  -2.056474495054e-02 9.004736095897e-02 0.000000000000e+00
  -1.991415515042e-02 5.147229590603e-02 0.000000000000e+00
  -1.957471818758e-02 1.557100679318e-02 0.000000000000e+00
  -1.956585358161e-02 -1.602699338628e-02 0.000000000000e+00
  -1.982229419839e-02 -4.334270324162e-02 0.000000000000e+00
  -2.021756644665e-02 -6.708914035602e-02 0.000000000000e+00
  -2.059163331033e-02 -8.784671994862e-02 0.000000000000e+00
  -2.077696891018e-02 -1.054957887932e-01 0.000000000000e+00
  -2.061404991479e-02 -1.188590112904e-01 0.000000000000e+00
  -1.995080906409e-02 -1.255941533689e-01 0.000000000000e+00
  -1.863128427385e-02 -1.225423374852e-01 0.000000000000e+00
  -1.648971688402e-02 -1.067063995803e-01 0.000000000000e+00
  -1.336894523887e-02 -7.672222976814e-02 0.000000000000e+00
  -9.171796324484e-03 -3.428374484475e-02 0.000000000000e+00
  -3.934676811815e-03 1.520124715059e-02 0.000000000000e+00
  2.106520199470e-03 6.323519965187e-02 0.000000000000e+00
  8.495331643251e-03 1.001255030132e-01 0.000000000000e+00
  1.460419344505e-02 1.175875257156e-01 0.000000000000e+00
  1.975273402025e-02 1.111858052191e-01 0.000000000000e+00
  2.336197230673e-02 8.179975575978e-02 0.000000000000e+00
  2.509266566578e-02 3.564763939962e-02 0.000000000000e+00
  2.492006341195e-02 -1.714659563337e-02 0.000000000000e+00
  2.312235476622e-02 -6.507373039283e-02 0.000000000000e+00
  2.019306601033e-02 -9.821915198313e-02 0.000000000000e+00
  1.671251970271e-02 -1.109221880924e-01 0.000000000000e+00
  1.322078677667e-02 -1.032950010764e-01 0.000000000000e+00
  1.012556128302e-02 -8.095806289311e-02 0.000000000000e+00
  7.661436805152e-03 -5.285796830305e-02 0.000000000000e+00
  5.900587532400e-03 -2.780675405841e-02 0.000000000000e+00
  4.802728191575e-03 -1.107895596361e-02 0.000000000000e+00
  4.284461490490e-03 -2.570622873039e-03 0.000000000000e+00
  0.000000000000e+00 0.000000000000e+00 0.000000000000e+00
  0.000000000000e+00 0.000000000000e+00 0.000000000000e+00
  -7.568990297831e-03 9.237796905354e-04 0.000000000000e+00
  -6.041247687215e-03 6.041247687215e-03 0.000000000000e+00
  -2.835434352247e-03 1.917342178097e-02 0.000000000000e+00
  2.242715391036e-03 4.054975907126e-02 0.000000000000e+00
  9.258626125924e-03 6.532649842058e-02 0.000000000000e+00
  1.797365452900e-02 8.539772305267e-02 0.000000000000e+00
  2.773301107531e-02 9.266174410895e-02 0.000000000000e+00
  3.746602860556e-02 8.226007769857e-02 0.000000000000e+00
  4.582040451085e-02 5.450374562553e-02 0.000000000000e+00
  5.141651624163e-02 1.492519102422e-02 0.000000000000e+00
  5.316678583486e-02 -2.732637355566e-02 0.000000000000e+00
  5.056826622057e-02 -6.205003709986e-02 0.000000000000e+00
  4.386398799220e-02 -8.070898367793e-02 0.000000000000e+00
  3.399882444371e-02 -7.859551625918e-02 0.000000000000e+00
  2.236800148852e-02 -5.593339433806e-02 0.000000000000e+00
  1.044194626331e-02 -1.765068085321e-02 0.000000000000e+00
  -5.948569441994e-04 2.811236917824e-02 0.000000000000e+00
  -1.006330969203e-02 7.231170175854e-02 0.000000000000e+00
  -1.781005470035e-02 1.073787181699e-01 0.000000000000e+00
  -2.406273342950e-02 1.288868497056e-01 0.000000000000e+00
  -2.921682506440e-02 1.360148777019e-01 0.000000000000e+00
  -3.365592957323e-02 1.308296724742e-01 0.000000000000e+00
  -3.766236578307e-02 1.168838687788e-01 0.000000000000e+00
  -4.141375378584e-02 9.779991535588e-02 0.000000000000e+00
  -4.502019834136e-02 7.632089124523e-02 0.000000000000e+00
  -4.855330789711e-02 5.393048105654e-02 0.000000000000e+00
  -5.204478517678e-02 3.087464899009e-02 0.000000000000e+00
  -5.546454901892e-02 6.422146455516e-03 0.000000000000e+00
  -5.870296112610e-02 -2.062436428554e-02 0.000000000000e+00
  -6.157156580170e-02 -5.108157274638e-02 0.000000000000e+00
  -6.381487306149e-02 -8.431426762603e-02 0.000000000000e+00
  -6.511462179214e-02 -1.173925099484e-01 0.000000000000e+00
  -6.508068202089e-02 -1.450879972563e-01 0.000000000000e+00
  -6.325056037816e-02 -1.610538789219e-01 0.000000000000e+00
  -5.913728572270e-02 -1.599286971799e-01 0.000000000000e+00
  -5.235192052334e-02 -1.395398499400e-01 0.000000000000e+00
  -4.278323153764e-02 -1.022351137607e-01 0.000000000000e+00
  -3.076878772283e-02 -5.474294920858e-02 0.000000000000e+00
  -1.717190193624e-02 -6.613942240531e-03 0.000000000000e+00
  -3.304362672183e-03 3.216303430453e-02 0.000000000000e+00
  9.305209889731e-03 5.360586088431e-02 0.000000000000e+00
  1.923448667534e-02 5.365303070374e-02 0.000000000000e+00
  2.548361636524e-02 3.322402074695e-02 0.000000000000e+00
  2.769099749122e-02 -1.745657085471e-03 0.000000000000e+00
  2.619279395281e-02 -4.142863049306e-02 0.000000000000e+00
  2.192165470791e-02 -7.439702025804e-02 0.000000000000e+00
  1.618568746173e-02 -9.072379166252e-02 0.000000000000e+00
  1.039450708102e-02 -8.504756974752e-02 0.000000000000e+00
  5.798691222533e-03 -5.848248646315e-02 0.000000000000e+00
  3.286370770003e-03 -1.849358410426e-02 0.000000000000e+00
  3.251298239508e-03 2.340485034500e-02 0.000000000000e+00
  5.529416394563e-03 5.537399946522e-02 0.000000000000e+00
  9.404089825847e-03 6.903967187773e-02 0.000000000000e+00
  1.369374597866e-02 6.197761194071e-02 0.000000000000e+00
  1.693892213309e-02 3.810930716870e-02 0.000000000000e+00
  1.768486689980e-02 6.095102723772e-03 0.000000000000e+00
  1.481600687360e-02 -2.346814047809e-02 0.000000000000e+00
  7.860187971763e-03 -4.099565105138e-02 0.000000000000e+00
  -2.833992589229e-03 -4.020686889787e-02 0.000000000000e+00
  -1.612143550867e-02 -1.940694095000e-02 0.000000000000e+00
  -3.030402585335e-02 1.827616373123e-02 0.000000000000e+00
  -4.353570024238e-02 6.564417748657e-02 0.000000000000e+00
  -5.426705842600e-02 1.130960358785e-01 0.000000000000e+00
  -6.158592115615e-02 1.509718744765e-01 0.000000000000e+00
  -6.534836534904e-02 1.720170351600e-01 0.000000000000e+00
  -6.607932438232e-02 1.731699523784e-01 0.000000000000e+00
  -6.471165410715e-02 1.559902438273e-01 0.000000000000e+00
  -6.228181396053e-02 1.255651812496e-01 0.000000000000e+00
  -5.968803731357e-02 8.841248789569e-02 0.000000000000e+00
  -5.756009397225e-02 5.032863582729e-02 0.000000000000e+00
  -5.622932996978e-02 1.504446590633e-02 0.000000000000e+00
  -5.575783529467e-02 -1.598081178064e-02 0.000000000000e+00
  -5.599148481807e-02 -4.289879470715e-02 0.000000000000e+00
  -5.662188631931e-02 -6.650737514101e-02 0.000000000000e+00
  -5.725226389265e-02 -8.742404072662e-02 0.000000000000e+00
  -5.745595778354e-02 -1.055294385245e-01 0.000000000000e+00
  -5.680812345968e-02 -1.196361148784e-01 0.000000000000e+00
  -5.487927133445e-02 -1.274091427568e-01 0.000000000000e+00
  -5.120585730685e-02 -1.257202869151e-01 0.000000000000e+00
  -4.528133076637e-02 -1.115945440807e-01 0.000000000000e+00
  -3.661752656264e-02 -8.361866111664e-02 0.000000000000e+00
  -2.489861682706e-02 -4.330337214621e-02 0.000000000000e+00
  -1.019622073483e-02 4.281358847151e-03 0.000000000000e+00
  6.838895878954e-03 5.107877433024e-02 0.000000000000e+00
  2.491384082136e-02 8.781817194864e-02 0.000000000000e+00
  4.223301626638e-02 1.064668195333e-01 0.000000000000e+00
  5.683611360790e-02 1.025548734846e-01 0.000000000000e+00
  6.704180146260e-02 7.661576135304e-02 0.000000000000e+00
  7.184940567239e-02 3.429333623752e-02 0.000000000000e+00
  7.116081095080e-02 -1.493109549585e-02 0.000000000000e+00
  6.575520950751e-02 -6.008592044132e-02 0.000000000000e+00
  5.704347061031e-02 -9.156593428154e-02 0.000000000000e+00
  4.670101898738e-02 -1.037524078634e-01 0.000000000000e+00
  3.630068414884e-02 -9.657271354080e-02 0.000000000000e+00
  2.704273522462e-02 -7.532717601086e-02 0.000000000000e+00
  1.963157270041e-02 -4.861356818322e-02 0.000000000000e+00
  1.430118123996e-02 -2.495991344504e-02 0.000000000000e+00
  1.095572665294e-02 -9.482482649136e-03 0.000000000000e+00
  9.368152418214e-03 -2.061255251707e-03 0.000000000000e+00
  0.000000000000e+00 0.000000000000e+00 0.000000000000e+00
  0.000000000000e+00 0.000000000000e+00 0.000000000000e+00
  -2.188408844569e-02 -1.088162498389e-04 0.000000000000e+00
  -1.917342178097e-02 2.835434352247e-03 0.000000000000e+00
  -1.354510099334e-02 1.354510099334e-02 0.000000000000e+00
  -4.748956557788e-03 3.230378568005e-02 0.000000000000e+00
  7.243986756666e-03 5.456361776245e-02 0.000000000000e+00
  2.197724338151e-02 7.271231868288e-02 0.000000000000e+00
  3.834690929089e-02 7.921812602306e-02 0.000000000000e+00
  5.461661915748e-02 6.970096838763e-02 0.000000000000e+00
  6.863910979996e-02 4.468598838871e-02 0.000000000000e+00
  7.825827948516e-02 9.527666845065e-03 0.000000000000e+00
  8.180342986005e-02 -2.722426934462e-02 0.000000000000e+00
  7.853367515028e-02 -5.628386698685e-02 0.000000000000e+00
  6.887437726676e-02 -7.011157767906e-02 0.000000000000e+00
  5.433585067406e-02 -6.478923211686e-02 0.000000000000e+00
  3.711528835747e-02 -4.088829320860e-02 0.000000000000e+00
  1.951178926292e-02 -3.166227662908e-03 0.000000000000e+00
  3.364580633667e-03 4.081192782470e-02 0.000000000000e+00
  -1.029145996826e-02 8.273663646183e-02 0.000000000000e+00
  -2.126466717693e-02 1.156737356836e-01 0.000000000000e+00
  -2.998826292590e-02 1.355681066701e-01 0.000000000000e+00
  -3.718748289658e-02 1.416869323431e-01 0.000000000000e+00
  -4.358452846773e-02 1.359937679130e-01 0.000000000000e+00
  -4.973020712167e-02 1.218718882038e-01 0.000000000000e+00
  -5.596399403520e-02 1.027970708472e-01 0.000000000000e+00
  -6.244562516439e-02 8.141181143857e-02 0.000000000000e+00
  -6.919514198918e-02 5.912218724375e-02 0.000000000000e+00
  -7.611196405626e-02 3.609124214965e-02 0.000000000000e+00
  -8.298245242169e-02 1.149580550357e-02 0.000000000000e+00
  -8.949863161378e-02 -1.594343203420e-02 0.000000000000e+00
  -9.529226180874e-02 -4.710027012688e-02 0.000000000000e+00
  -9.996045234211e-02 -8.138407245173e-02 0.000000000000e+00
  -1.030534990038e-01 -1.159299097290e-01 0.000000000000e+00
  -1.040266518181e-01 -1.456113844299e-01 0.000000000000e+00
  -1.022058042163e-01 -1.641814609871e-01 0.000000000000e+00
  -9.684189093776e-02 -1.662783030381e-01 0.000000000000e+00
  -8.729969760456e-02 -1.495178025953e-01 0.000000000000e+00
  -7.335064263926e-02 -1.157749050239e-01 0.000000000000e+00
  -5.545958305852e-02 -7.110866128825e-02 0.000000000000e+00
  -3.492479916952e-02 -2.437989975476e-02 0.000000000000e+00
  -1.377250398415e-02 1.490915749007e-02 0.000000000000e+00
  5.597086876369e-03 3.888057444634e-02 0.000000000000e+00
  2.091550344850e-02 4.313062401191e-02 0.000000000000e+00
  3.055064045019e-02 2.786216103777e-02 0.000000000000e+00
  3.386306290894e-02 -1.903600609557e-03 0.000000000000e+00
  3.132227428033e-02 -3.723169439992e-02 0.000000000000e+00
  2.436811026312e-02 -6.736865265635e-02 0.000000000000e+00
  1.507290923008e-02 -8.272099055032e-02 0.000000000000e+00
  5.703849326155e-03 -7.789013017350e-02 0.000000000000e+00
  -1.708858559378e-03 -5.363140196155e-02 0.000000000000e+00
  -5.720036397758e-03 -1.682117008662e-02 0.000000000000e+00
  -5.698059413250e-03 2.174553197415e-02 0.000000000000e+00
  -1.927669750390e-03 5.098480998037e-02 0.000000000000e+00
  4.415562141656e-03 6.321095586701e-02 0.000000000000e+00
  1.143266803062e-02 5.649956562156e-02 0.000000000000e+00
  1.682234708075e-02 3.495249790911e-02 0.000000000000e+00
  1.833524082016e-02 6.993073052963e-03 0.000000000000e+00
  1.428647753603e-02 -1.744848793479e-02 0.000000000000e+00
  4.002708504199e-03 -2.977571608030e-02 0.000000000000e+00
  -1.193407708756e-02 -2.479583809276e-02 0.000000000000e+00
  -3.174716362865e-02 -1.717442613744e-03 0.000000000000e+00
  -5.284772298993e-02 3.586981484463e-02 0.000000000000e+00
  -7.244920293744e-02 8.088368051418e-02 0.000000000000e+00
  -8.823163148307e-02 1.243703194382e-01 0.000000000000e+00
  -9.884386279769e-02 1.576286848634e-01 0.000000000000e+00
  -1.040885053849e-01 1.743673114884e-01 0.000000000000e+00
  -1.047600283951e-01 1.722221580528e-01 0.000000000000e+00
  -1.022417766160e-01 1.530521160742e-01 0.000000000000e+00
  -9.804370962423e-02 1.218754018504e-01 0.000000000000e+00
  -9.344562955759e-02 8.491041057373e-02 0.000000000000e+00
  -8.932279695499e-02 4.757993720139e-02 0.000000000000e+00
  -8.613282272717e-02 1.327242629999e-02 0.000000000000e+00
  -8.398965970239e-02 -1.682342987510e-02 0.000000000000e+00
  -8.275625428167e-02 -4.305593251043e-02 0.000000000000e+00
  -8.212373591852e-02 -6.635235419982e-02 0.000000000000e+00
  -8.167262548549e-02 -8.739979452757e-02 0.000000000000e+00
  -8.091393790615e-02 -1.061086784120e-01 0.000000000000e+00
  -7.929974646237e-02 -1.213189007585e-01 0.000000000000e+00
  -7.619868975149e-02 -1.307562657128e-01 0.000000000000e+00
  -7.086021951246e-02 -1.313850482257e-01 0.000000000000e+00
  -6.242418626854e-02 -1.202903425545e-01 0.000000000000e+00
  -5.003939097015e-02 -9.597146214499e-02 0.000000000000e+00
  -3.311684563884e-02 -5.959202618474e-02 0.000000000000e+00
  -1.166876649145e-02 -1.558046235393e-02 0.000000000000e+00
  1.339191189474e-02 2.884480053134e-02 0.000000000000e+00
  4.014809560074e-02 6.522101709914e-02 0.000000000000e+00
  6.588294437045e-02 8.600995016811e-02 0.000000000000e+00
  8.758977825509e-02 8.670181162370e-02 0.000000000000e+00
  1.026509130247e-01 6.720200058962e-02 0.000000000000e+00
  1.094630851193e-01 3.208732069656e-02 0.000000000000e+00
  1.077974762095e-01 -1.037087632349e-02 0.000000000000e+00
  9.878511883757e-02 -5.022818079846e-02 0.000000000000e+00
  8.456035264722e-02 -7.848716883686e-02 0.000000000000e+00
  6.770709571483e-02 -8.963546475278e-02 0.000000000000e+00
  5.069186072468e-02 -8.327408682275e-02 0.000000000000e+00
  3.543544098143e-02 -6.411143406144e-02 0.000000000000e+00
  2.310535668879e-02 -4.008806331579e-02 0.000000000000e+00
  1.413881010409e-02 -1.918848026733e-02 0.000000000000e+00
  8.448642414315e-03 -6.218293550051e-03 0.000000000000e+00
  5.725022912543e-03 -1.014250614294e-03 0.000000000000e+00
  0.000000000000e+00 0.000000000000e+00 0.000000000000e+00
  0.000000000000e+00 0.000000000000e+00 0.000000000000e+00
  -4.456650799422e-02 -1.758082094248e-03 0.000000000000e+00
  -4.054975907126e-02 -2.242715391036e-03 0.000000000000e+00
  -3.230378568005e-02 4.748956557788e-03 0.000000000000e+00
  -1.960694922912e-02 1.960694922912e-02 0.000000000000e+00
  -2.553524279586e-03 3.821408594940e-02 0.000000000000e+00
  1.812856835657e-02 5.364650123493e-02 0.000000000000e+00
  4.089637610193e-02 5.914646981628e-02 0.000000000000e+00
  6.343717223229e-02 5.096211859744e-02 0.000000000000e+00
  8.297028388705e-02 2.986923588166e-02 0.000000000000e+00
  9.676424864115e-02 9.312849128160e-04 0.000000000000e+00
  1.027532595926e-01 -2.816204873868e-02 0.000000000000e+00
  1.000760584395e-01 -4.939913172994e-02 0.000000000000e+00
  8.934668633668e-02 -5.660764294962e-02 0.000000000000e+00
  7.252969796897e-02 -4.693765188589e-02 0.000000000000e+00
  5.242798190659e-02 -2.141759506061e-02 0.000000000000e+00
  3.194570868250e-02 1.544884650774e-02 0.000000000000e+00
  1.338307023998e-02 5.690670072583e-02 0.000000000000e+00
  -2.001296553276e-03 9.568227095589e-02 0.000000000000e+00
  -1.405081319343e-02 1.257508250383e-01 0.000000000000e+00
  -2.344743402463e-02 1.436112338955e-01 0.000000000000e+00
  -3.129003527361e-02 1.486856263373e-01 0.000000000000e+00
  -3.869614562936e-02 1.427982298457e-01 0.000000000000e+00