# vtk DataFile Version 3.0
Karman Output
ASCII
DATASET RECTILINEAR_GRID
DIMENSIONS 101 101 1
X_COORDINATES 101 float
   0.000000000000e+00   9.900990099010e-03   1.980198019802e-02   2.970297029703e-02   3.960396039604e-02   4.950495049505e-02   5.940594059406e-02   6.930693069307e-02   7.920792079208e-02   8.910891089109e-02   9.900990099010e-02   1.089108910891e-01   1.188118811881e-01   1.287128712871e-01   1.386138613861e-01   1.485148514851e-01   1.584158415842e-01   1.683168316832e-01   1.782178217822e-01   1.881188118812e-01   1.980198019802e-01   2.079207920792e-01   2.178217821782e-01   2.277227722772e-01   2.376237623762e-01   2.475247524752e-01   2.574257425743e-01   2.673267326733e-01   2.772277227723e-01   2.871287128713e-01   2.970297029703e-01   3.069306930693e-01   3.168316831683e-01   3.267326732673e-01   3.366336633663e-01   3.465346534653e-01   3.564356435644e-01   3.663366336634e-01   3.762376237624e-01   3.861386138614e-01   3.960396039604e-01   4.059405940594e-01   4.158415841584e-01   4.257425742574e-01   4.356435643564e-01   4.455445544554e-01   4.554455445545e-01   4.653465346535e-01   4.752475247525e-01   4.851485148515e-01   4.950495049505e-01   5.049504950495e-01   5.148514851485e-01   5.247524752475e-01   5.346534653465e-01   5.445544554455e-01   5.544554455446e-01   5.643564356436e-01   5.742574257426e-01   5.841584158416e-01   5.940594059406e-01   6.039603960396e-01   6.138613861386e-01   6.237623762376e-01   6.336633663366e-01   6.435643564356e-01   6.534653465347e-01   6.633663366337e-01   6.732673267327e-01   6.831683168317e-01   6.930693069307e-01   7.029702970297e-01   7.128712871287e-01   7.227722772277e-01   7.326732673267e-01   7.425742574257e-01   7.524752475248e-01   7.623762376238e-01   7.722772277228e-01   7.821782178218e-01   7.920792079208e-01   8.019801980198e-01   8.118811881188e-01   8.217821782178e-01   8.316831683168e-01   8.415841584158e-01   8.514851485149e-01   8.613861386139e-01   8.712871287129e-01   8.811881188119e-01   8.910891089109e-01   9.009900990099e-01   9.108910891089e-01   9.207920792079e-01   9.306930693069e-01   9.405940594059e-01   9.504950495050e-01   9.603960396040e-01   9.702970297030e-01   9.801980198020e-01   9.900990099010e-01
Y_COORDINATES 101 float
   0.000000000000e+00   9.900990099010e-03   1.980198019802e-02   2.970297029703e-02   3.960396039604e-02   4.950495049505e-02   5.940594059406e-02   6.930693069307e-02   7.920792079208e-02   8.910891089109e-02   9.900990099010e-02   1.089108910891e-01   1.188118811881e-01   1.287128712871e-01   1.386138613861e-01   1.485148514851e-01   1.584158415842e-01   1.683168316832e-01   1.782178217822e-01   1.881188118812e-01   1.980198019802e-01   2.079207920792e-01   2.178217821782e-01   2.277227722772e-01   2.376237623762e-01   2.475247524752e-01   2.574257425743e-01   2.673267326733e-01   2.772277227723e-01   2.871287128713e-01   2.970297029703e-01   3.069306930693e-01   3.168316831683e-01   3.267326732673e-01   3.366336633663e-01   3.465346534653e-01   3.564356435644e-01   3.663366336634e-01   3.762376237624e-01   3.861386138614e-01   3.960396039604e-01   4.059405940594e-01   4.158415841584e-01   4.257425742574e-01   4.356435643564e-01   4.455445544554e-01   4.554455445545e-01   4.653465346535e-01   4.752475247525e-01   4.851485148515e-01   4.950495049505e-01   5.049504950495e-01   5.148514851485e-01   5.247524752475e-01   5.346534653465e-01   5.445544554455e-01   5.544554455446e-01   5.643564356436e-01   5.742574257426e-01   5.841584158416e-01   5.940594059406e-01   6.039603960396e-01   6.138613861386e-01   6.237623762376e-01   6.336633663366e-01   6.435643564356e-01   6.534653465347e-01   6.633663366337e-01   6.732673267327e-01   6.831683168317e-01   6.930693069307e-01   7.029702970297e-01   7.128712871287e-01   7.227722772277e-01   7.326732673267e-01   7.425742574257e-01   7.524752475248e-01   7.623762376238e-01   7.722772277228e-01   7.821782178218e-01   7.920792079208e-01   8.019801980198e-01   8.118811881188e-01   8.217821782178e-01   8.316831683168e-01   8.415841584158e-01   8.514851485149e-01   8.613861386139e-01   8.712871287129e-01   8.811881188119e-01   8.910891089109e-01   9.009900990099e-01   9.108910891089e-01   9.207920792079e-01   9.306930693069e-01   9.405940594059e-01   9.504950495050e-01   9.603960396040e-01   9.702970297030e-01   9.801980198020e-01   9.900990099010e-01
Z_COORDINATES 1 float
  0.000000000000e+00
POINT_DATA 10201
VECTORS E_field float
  0.000000000000e+00 0.000000000000e+00 0.000000000000e+00
  0.000000000000e+00 0.000000000000e+00 0.000000000000e+00
  0.000000000000e+00 0.000000000000e+00 0.000000000000e+00
  0.000000000000e+00 0.000000000000e+00 0.000000000000e+00
  0.000000000000e+00 0.000000000000e+00 0.000000000000e+00
  0.000000000000e+00 0.000000000000e+00 0.000000000000e+00
  0.000000000000e+00 0.000000000000e+00 0.000000000000e+00
  0.000000000000e+00 0.000000000000e+00 0.000000000000e+00
  0.000000000000e+00 0.000000000000e+00 0.000000000000e+00
  0.000000000000e+00 0.000000000000e+00 0.000000000000e+00
  0.000000000000e+00 0.000000000000e+00 0.000000000000e+00
  0.000000000000e+00 0.000000000000e+00 0.000000000000e+00
  0.000000000000e+00 0.000000000000e+00 0.000000000000e+00
  0.000000000000e+00 0.000000000000e+00 0.000000000000e+00
  0.000000000000e+00 0.000000000000e+00 0.000000000000e+00
  0.000000000000e+00 0.000000000000e+00 0.000000000000e+00
  0.000000000000e+00 0.000000000000e+00 0.000000000000e+00
  0.000000000000e+00 0.000000000000e+00 0.000000000000e+00
  0.000000000000e+00 0.000000000000e+00 0.000000000000e+00
  0.000000000000e+00 0.000000000000e+00 0.000000000000e+00
  0.000000000000e+00 0.000000000000e+00 0.000000000000e+00
  0.000000000000e+00 0.000000000000e+00 0.000000000000e+00
  0.000000000000e+00 0.000000000000e+00 0.000000000000e+00
  0.000000000000e+00 0.000000000000e+00 0.000000000000e+00
  0.000000000000e+00 0.000000000000e+00 0.000000000000e+00
  0.000000000000e+00 0.000000000000e+00 0.000000000000e+00
  0.000000000000e+00 0.000000000000e+00 0.000000000000e+00
  0.000000000000e+00 0.000000000000e+00 0.000000000000e+00
  0.000000000000e+00 0.000000000000e+00 0.000000000000e+00
  0.000000000000e+00 0.000000000000e+00 0.000000000000e+00
  0.000000000000e+00 0.000000000000e+00 0.000000000000e+00
  0.000000000000e+00 0.000000000000e+00 0.000000000000e+00
  0.000000000000e+00 0.000000000000e+00 0.000000000000e+00
  0.000000000000e+00 0.000000000000e+00 0.000000000000e+00
  0.000000000000e+00 0.000000000000e+00 0.000000000000e+00
  0.000000000000e+00 0.000000000000e+00 0.000000000000e+00
  0.000000000000e+00 0.000000000000e+00 0.000000000000e+00
  0.000000000000e+00 0.000000000000e+00 0.000000000000e+00
  0.000000000000e+00 0.000000000000e+00 0.000000000000e+00
  0.000000000000e+00 0.000000000000e+00 0.000000000000e+00
  0.000000000000e+00 0.000000000000e+00 0.000000000000e+00
  0.000000000000e+00 0.000000000000e+00 0.000000000000e+00
  0.000000000000e+00 0.000000000000e+00 0.000000000000e+00
  0.000000000000e+00 0.000000000000e+00 0.000000000000e+00
  0.000000000000e+00 0.000000000000e+00 0.000000000000e+00
  0.000000000000e+00 0.000000000000e+00 0.000000000000e+00
  0.000000000000e+00 0.000000000000e+00 0.000000000000e+00
  0.000000000000e+00 0.000000000000e+00 0.000000000000e+00
  0.000000000000e+00 0.000000000000e+00 0.000000000000e+00
  0.000000000000e+00 0.000000000000e+00 0.000000000000e+00
  0.000000000000e+00 0.000000000000e+00 0.000000000000e+00
  0.000000000000e+00 0.000000000000e+00 0.000000000000e+00
  0.000000000000e+00 0.000000000000e+00 0.000000000000e+00
  0.000000000000e+00 0.000000000000e+00 0.000000000000e+00
  0.000000000000e+00 0.000000000000e+00 0.000000000000e+00
  0.000000000000e+00 0.000000000000e+00 0.000000000000e+00
  0.000000000000e+00 0.000000000000e+00 0.000000000000e+00
  0.000000000000e+00 0.000000000000e+00 0.000000000000e+00
  0.000000000000e+00 0.000000000000e+00 0.000000000000e+00
  0.000000000000e+00 0.000000000000e+00 0.000000000000e+00
  0.000000000000e+00 0.000000000000e+00 0.000000000000e+00
  0.000000000000e+00 0.000000000000e+00 0.000000000000e+00
  0.000000000000e+00 0.000000000000e+00 0.000000000000e+00
  0.000000000000e+00 0.000000000000e+00 0.000000000000e+00
  0.000000000000e+00 0.000000000000e+00 0.000000000000e+00
  0.000000000000e+00 0.000000000000e+00 0.000000000000e+00
  0.000000000000e+00 0.000000000000e+00 0.000000000000e+00
  0.000000000000e+00 0.000000000000e+00 0.000000000000e+00
  0.000000000000e+00 0.000000000000e+00 0.000000000000e+00
  0.000000000000e+00 0.000000000000e+00 0.000000000000e+00
  0.000000000000e+00 0.000000000000e+00 0.000000000000e+00
  0.000000000000e+00 0.000000000000e+00 0.000000000000e+00
  0.000000000000e+00 0.000000000000e+00 0.000000000000e+00
  0.000000000000e+00 0.000000000000e+00 0.000000000000e+00
  0.000000000000e+00 0.000000000000e+00 0.000000000000e+00
  0.000000000000e+00 0.000000000000e+00 0.000000000000e+00
  0.000000000000e+00 0.000000000000e+00 0.000000000000e+00
  0.000000000000e+00 0.000000000000e+00 0.000000000000e+00
  0.000000000000e+00 0.000000000000e+00 0.000000000000e+00
  0.000000000000e+00 0.000000000000e+00 0.000000000000e+00
  0.000000000000e+00 0.000000000000e+00 0.000000000000e+00
  0.000000000000e+00 0.000000000000e+00 0.000000000000e+00
  0.000000000000e+00 0.000000000000e+00 0.000000000000e+00
  0.000000000000e+00 0.000000000000e+00 0.000000000000e+00
  0.000000000000e+00 0.000000000000e+00 0.000000000000e+00
  0.000000000000e+00 0.000000000000e+00 0.000000000000e+00
  0.000000000000e+00 0.000000000000e+00 0.000000000000e+00
  0.000000000000e+00 0.000000000000e+00 0.000000000000e+00
  0.000000000000e+00 0.000000000000e+00 0.000000000000e+00
  0.000000000000e+00 0.000000000000e+00 0.000000000000e+00
  0.000000000000e+00 0.000000000000e+00 0.000000000000e+00
  0.000000000000e+00 0.000000000000e+00 0.000000000000e+00
  0.000000000000e+00 0.000000000000e+00 0.000000000000e+00
  0.000000000000e+00 0.000000000000e+00 0.000000000000e+00
  0.000000000000e+00 0.000000000000e+00 0.000000000000e+00
  0.000000000000e+00 0.000000000000e+00 0.000000000000e+00
  0.000000000000e+00 0.000000000000e+00 0.000000000000e+00
  0.000000000000e+00 0.000000000000e+00 0.000000000000e+00
  0.000000000000e+00 0.000000000000e+00 0.000000000000e+00
  0.000000000000e+00 0.000000000000e+00 0.000000000000e+00
  0.000000000000e+00 0.000000000000e+00 0.000000000000e+00
  0.000000000000e+00 0.000000000000e+00 0.000000000000e+00
  1.705276169697e-02 -1.705276169697e-02 0.000000000000e+00
  1.693003418433e-02 -4.578661578304e-02 0.000000000000e+00
  1.669221908626e-02 -6.011913177873e-02 0.000000000000e+00
  1.634952929805e-02 -5.552666749348e-02 0.000000000000e+00
  1.590561570819e-02 -3.310459392258e-02 0.000000000000e+00
  1.534888537325e-02 1.408565316032e-03 0.000000000000e+00
  1.465237099890e-02 4.024282214322e-02 0.000000000000e+00
  1.378835801831e-02 7.666943922374e-02 0.000000000000e+00
  1.275508350343e-02 1.071841899747e-01 0.000000000000e+00
  1.160295003333e-02 1.319633319146e-01 0.000000000000e+00
  1.044545780454e-02 1.536668140819e-01 0.000000000000e+00
  9.447977356871e-03 1.754278302500e-01 0.000000000000e+00
  8.799053632627e-03 1.990696150800e-01 0.000000000000e+00
  8.674799146668e-03 2.242215737805e-01 0.000000000000e+00
  9.203901371112e-03 2.484114172128e-01 0.000000000000e+00
  1.043444032336e-02 2.677882111813e-01 0.000000000000e+00
  1.230248098962e-02 2.780675180703e-01 0.000000000000e+00
  1.460908683969e-02 2.754863959934e-01 0.000000000000e+00
  1.702136465777e-02 2.577621010043e-01 0.000000000000e+00
  1.911487055975e-02 2.250562311996e-01 0.000000000000e+00
  2.046322341313e-02 1.807330418217e-01 0.000000000000e+00
  2.075845460427e-02 1.314512697724e-01 0.000000000000e+00
  1.992281690071e-02 8.612180555421e-02 0.000000000000e+00
  1.816303401006e-02 5.366465697339e-02 0.000000000000e+00
  1.593087669740e-02 4.017976557170e-02 0.000000000000e+00
  1.378847101307e-02 4.669235848075e-02 0.000000000000e+00
  1.221917463552e-02 6.860123001447e-02 0.000000000000e+00
  1.145422876261e-02 9.723295502447e-02 0.000000000000e+00
  1.138472663837e-02 1.228589893338e-01 0.000000000000e+00
  1.159532034431e-02 1.378062744148e-01 0.000000000000e+00
  1.150538392764e-02 1.383383563671e-01 0.000000000000e+00
  1.055966523205e-02 1.247414281601e-01 0.000000000000e+00
  8.394544715467e-03 1.000036521864e-01 0.000000000000e+00
  4.923394182194e-03 6.804416306723e-02 0.000000000000e+00
  3.233174667180e-04 3.237378472962e-02 0.000000000000e+00
  -5.055212320306e-03 -4.458314851548e-03 0.000000000000e+00
  -1.081179316367e-02 -4.082501048429e-02 0.000000000000e+00
  -1.660762649577e-02 -7.580132885641e-02 0.000000000000e+00
  -2.223422567050e-02 -1.090221988422e-01 0.000000000000e+00
  -2.762732483219e-02 -1.405673963783e-01 0.000000000000e+00
  -3.283093063027e-02 -1.706441541026e-01 0.000000000000e+00
  -3.792891903438e-02 -1.989309898533e-01 0.000000000000e+00
  -4.296871237505e-02 -2.237439032313e-01 0.000000000000e+00
  -4.790204323062e-02 -2.414759406429e-01 0.000000000000e+00
  -5.256092854669e-02 -2.468206754440e-01 0.000000000000e+00
  -5.667476310318e-02 -2.340201308413e-01 0.000000000000e+00
  -5.992152104880e-02 -1.988771142782e-01 0.000000000000e+00
  -6.199706869386e-02 -1.408027333289e-01 0.000000000000e+00
  -6.268366342546e-02 -6.400849039732e-02 0.000000000000e+00
  -6.190111763274e-02 2.278319481600e-02 0.000000000000e+00
  -5.972978037468e-02 1.081587681219e-01 0.000000000000e+00
  -5.640147536392e-02 1.807910924638e-01 0.000000000000e+00
  -5.226129851491e-02 2.322128621645e-01 0.000000000000e+00
  -4.770843090661e-02 2.586281031414e-01 0.000000000000e+00
  -4.312707167765e-02 2.611972799231e-01 0.000000000000e+00
  -3.881944918967e-02 2.448468884538e-01 0.000000000000e+00
  -3.495260929661e-02 2.162180839613e-01 0.000000000000e+00
  -3.152990075330e-02 1.816209424165e-01 0.000000000000e+00
  -2.839604844039e-02 1.456996778710e-01 0.000000000000e+00
  -2.527988739481e-02 1.110629733292e-01 0.000000000000e+00
  -2.187057932671e-02 7.866313795393e-02 0.000000000000e+00
  -1.791292290778e-02 4.846428924166e-02 0.000000000000e+00
  -1.329837179330e-02 2.000612052992e-02 0.000000000000e+00
  -8.124034245607e-03 -7.258475787031e-03 0.000000000000e+00
  -2.695033623407e-03 -3.371009925264e-02 0.000000000000e+00
  2.541975995593e-03 -5.919299360941e-02 0.000000000000e+00
  7.124798926426e-03 -8.252966267793e-02 0.000000000000e+00
  1.072596840381e-02 -1.012385082139e-01 0.000000000000e+00
  1.327269029644e-02 -1.119250458397e-01 0.000000000000e+00
  1.498223751859e-02 -1.115818098286e-01 0.000000000000e+00
  1.628568576115e-02 -9.945360326865e-02 0.000000000000e+00
  1.765938464047e-02 -7.855429740504e-02 0.000000000000e+00
  1.942822857661e-02 -5.580868291784e-02 0.000000000000e+00
  2.162332966336e-02 -4.034769386260e-02 0.000000000000e+00
  2.395658608335e-02 -4.046260476437e-02 0.000000000000e+00
  2.592392564201e-02 -6.053290544247e-02 0.000000000000e+00
  2.699268674083e-02 -9.934419725697e-02 0.000000000000e+00
  2.679464804066e-02 -1.505175152322e-01 0.000000000000e+00
  2.524989148167e-02 -2.047180507688e-01 0.000000000000e+00
  2.258285386356e-02 -2.525442082575e-01 0.000000000000e+00
  1.923972562691e-02 -2.869105561738e-01 0.000000000000e+00
  1.575228109003e-02 -3.042428570167e-01 0.000000000000e+00
  1.260364657455e-02 -3.044772297755e-01 0.000000000000e+00
  1.013742339653e-02 -2.902875528366e-01 0.000000000000e+00
  8.524782039522e-03 -2.660112498716e-01 0.000000000000e+00
  7.779336454295e-03 -2.365402839041e-01 0.000000000000e+00
  7.797220774612e-03 -2.062442389896e-01 0.000000000000e+00
  8.401970877870e-03 -1.779737158392e-01 0.000000000000e+00
  9.384514400518e-03 -1.523507030817e-01 0.000000000000e+00
  1.053799121867e-02 -1.277128342426e-01 0.000000000000e+00
  1.168866463576e-02 -1.010135451709e-01 0.000000000000e+00
  1.271922877881e-02 -6.958987760270e-02 0.000000000000e+00
  1.357692419992e-02 -3.315104178348e-02 0.000000000000e+00
  1.426229873105e-02 5.016487518498e-03 0.000000000000e+00
  1.480384079896e-02 3.845232470967e-02 0.000000000000e+00
  1.523128638165e-02 5.963049223502e-02 0.000000000000e+00
  1.555960210011e-02 6.297507257848e-02 0.000000000000e+00
  1.578743869909e-02 4.745860154773e-02 0.000000000000e+00
  1.590525873357e-02 1.760221761777e-02 0.000000000000e+00
  0.000000000000e+00 0.000000000000e+00 0.000000000000e+00
  0.000000000000e+00 0.000000000000e+00 0.000000000000e+00
  4.578661578304e-02 -1.693003418433e-02 0.000000000000e+00
  4.542761385529e-02 -4.542761385529e-02 0.000000000000e+00
  4.473354160615e-02 -5.954624635928e-02 0.000000000000e+00
  4.373680527772e-02 -5.476012679629e-02 0.000000000000e+00
  4.245083165320e-02 -3.214124740538e-02 0.000000000000e+00
  4.084439546520e-02 2.608385321767e-03 0.000000000000e+00
  3.884149363956e-02 4.174241833747e-02 0.000000000000e+00
  3.636453901576e-02 7.851081063389e-02 0.000000000000e+00
  3.341260112499e-02 1.093280309702e-01 0.000000000000e+00
  3.013783546510e-02 1.342463900491e-01 0.000000000000e+00
  2.687690579188e-02 1.558021778495e-01 0.000000000000e+00
  2.411733387847e-02 1.770495188435e-01 0.000000000000e+00
  2.241248271278e-02 1.998017013764e-01 0.000000000000e+00
  2.227620331852e-02 2.237500213643e-01 0.000000000000e+00
  2.407961654447e-02 2.465504541785e-01 0.000000000000e+00
  2.795409717610e-02 2.645441546317e-01 0.000000000000e+00
  3.370063170576e-02 2.736969994240e-01 0.000000000000e+00
  4.072474645640e-02 2.705261940390e-01 0.000000000000e+00
  4.804200371862e-02 2.529927678784e-01 0.000000000000e+00
  5.440390322210e-02 2.213701589201e-01 0.000000000000e+00
  5.856043021174e-02 1.789142342583e-01 0.000000000000e+00
  5.961047615667e-02 1.319248001998e-01 0.000000000000e+00
  5.732544079145e-02 8.876894819562e-02 0.000000000000e+00
  5.230413861573e-02 5.779859939835e-02 0.000000000000e+00
  4.585598772839e-02 4.472613134674e-02 0.000000000000e+00
  3.961019906275e-02 5.053418705568e-02 0.000000000000e+00
  3.497063915028e-02 7.096825772957e-02 0.000000000000e+00
  3.261869895293e-02 9.798281337964e-02 0.000000000000e+00
  3.226224101374e-02 1.225350910421e-01 0.000000000000e+00
  3.273237595097e-02 1.374494440634e-01 0.000000000000e+00
  3.238520347174e-02 1.391322956145e-01 0.000000000000e+00
  2.964281856539e-02 1.276355925149e-01 0.000000000000e+00
  2.346455928852e-02 1.054528676256e-01 0.000000000000e+00
  1.358972981757e-02 7.594092763319e-02 0.000000000000e+00
  5.024562374816e-04 4.216437046085e-02 0.000000000000e+00
  -1.482092926432e-02 6.453014708992e-03 0.000000000000e+00
  -3.125884077924e-02 -2.954184768147e-02 0.000000000000e+00
  -4.785961880688e-02 -6.468788029115e-02 0.000000000000e+00
  -6.403735971728e-02 -9.833130730933e-02 0.000000000000e+00
  -7.961315406146e-02 -1.302893943859e-01 0.000000000000e+00
  -9.471411081151e-02 -1.606175935192e-01 0.000000000000e+00
  -1.095786616441e-01 -1.889950111626e-01 0.000000000000e+00
  -1.243380574090e-01 -2.138806927686e-01 0.000000000000e+00
  -1.388460187049e-01 -2.318978588959e-01 0.000000000000e+00
  -1.526088950693e-01 -2.379769954435e-01 0.000000000000e+00
  -1.648335208360e-01 -2.265253504462e-01 0.000000000000e+00
  -1.745729263556e-01 -1.933857311351e-01 0.000000000000e+00
  -1.809245949779e-01 -1.378669001371e-01 0.000000000000e+00
  -1.832278600935e-01 -6.395446368623e-02 0.000000000000e+00
  -1.812138502724e-01 1.993261252942e-02 0.000000000000e+00
  -1.750770349988e-01 1.027011978935e-01 0.000000000000e+00
  -1.654564613352e-01 1.732997840109e-01 0.000000000000e+00
  -1.533332201440e-01 2.234407525476e-01 0.000000000000e+00
  -1.398652886699e-01 2.493794136268e-01 0.000000000000e+00
  -1.261897056546e-01 2.521890271300e-01 0.000000000000e+00
  -1.132256847298e-01 2.365834977628e-01 0.000000000000e+00
  -1.015132434459e-01 2.089021934021e-01 0.000000000000e+00
  -9.112121903296e-02 1.751220999496e-01 0.000000000000e+00
  -8.165322812525e-02 1.395966770550e-01 0.000000000000e+00
  -7.236533894387e-02 1.047619238659e-01 0.000000000000e+00
  -6.238351651440e-02 7.157305687795e-02 0.000000000000e+00
  -5.097775816444e-02 4.019095551722e-02 0.000000000000e+00
  -3.782370219943e-02 1.051084715219e-02 0.000000000000e+00
  -2.317159896568e-02 -1.758964320626e-02 0.000000000000e+00
  -7.853725981208e-03 -4.412580545020e-02 0.000000000000e+00
  6.902017513257e-03 -6.877004053160e-02 0.000000000000e+00
  1.982425362778e-02 -9.045767480482e-02 0.000000000000e+00
  3.001697809767e-02 -1.071043900364e-01 0.000000000000e+00
  3.729331402055e-02 -1.158822218339e-01 0.000000000000e+00
  4.227350096308e-02 -1.143143679997e-01 0.000000000000e+00
  4.617100664693e-02 -1.019219990242e-01 0.000000000000e+00
  5.031949603055e-02 -8.160808991252e-02 0.000000000000e+00
  5.561868718720e-02 -5.982292550321e-02 0.000000000000e+00
  6.213110640101e-02 -4.504097157783e-02 0.000000000000e+00
  6.900794800909e-02 -4.497942507722e-02 0.000000000000e+00
  7.478102054606e-02 -6.375649722525e-02 0.000000000000e+00
  7.789796482473e-02 -1.003063108517e-01 0.000000000000e+00
  7.727875230690e-02 -1.487381504195e-01 0.000000000000e+00
  7.267811634280e-02 -2.003520230584e-01 0.000000000000e+00
  6.473910198266e-02 -2.463041839896e-01 0.000000000000e+00
  5.475959232842e-02 -2.798279425508e-01 0.000000000000e+00
  4.429906370866e-02 -2.973774974831e-01 0.000000000000e+00
  3.478600803140e-02 -2.986808991164e-01 0.000000000000e+00
  2.724811093708e-02 -2.860797632233e-01 0.000000000000e+00
  2.221031131157e-02 -2.635685985023e-01 0.000000000000e+00
  1.973316705267e-02 -2.357603454293e-01 0.000000000000e+00
  1.952681736944e-02 -2.068357121016e-01 0.000000000000e+00
  2.108128505288e-02 -1.795414605140e-01 0.000000000000e+00
  2.378446152713e-02 -1.544686784038e-01 0.000000000000e+00
  2.702618434891e-02 -1.299900585604e-01 0.000000000000e+00
  3.029113404494e-02 -1.031519439663e-01 0.000000000000e+00
  3.322899441280e-02 -7.141990331831e-02 0.000000000000e+00
  3.567938979607e-02 -3.462910687226e-02 0.000000000000e+00
  3.763949986450e-02 3.849068007726e-03 0.000000000000e+00
  3.918981091852e-02 3.752789109851e-02 0.000000000000e+00
  4.041558099260e-02 5.890171018943e-02 0.000000000000e+00
  4.135933572283e-02 6.243178417538e-02 0.000000000000e+00
  4.201585828760e-02 4.711753078708e-02 0.000000000000e+00
  4.235596403507e-02 1.748536259647e-02 0.000000000000e+00
  0.000000000000e+00 0.000000000000e+00 0.000000000000e+00
  0.000000000000e+00 0.000000000000e+00 0.000000000000e+00
  6.011913177873e-02 -1.669221908626e-02 0.000000000000e+00
  5.954624635928e-02 -4.473354160615e-02 0.000000000000e+00
  5.844334876292e-02 -5.844334876292e-02 0.000000000000e+00
  5.686972895683e-02 -5.329266825812e-02 0.000000000000e+00
  5.485535501994e-02 -3.030835838214e-02 0.000000000000e+00
  5.235941778489e-02 4.877869721573e-03 0.000000000000e+00
  4.927102815678e-02 4.456422539141e-02 0.000000000000e+00
  4.547897803745e-02 8.195800832309e-02 0.000000000000e+00
  4.099610463927e-02 1.133156445699e-01 0.000000000000e+00
  3.607945282099e-02 1.384501939276e-01 0.000000000000e+00
  3.127811766665e-02 1.596606387986e-01 0.000000000000e+00
  2.737720359046e-02 1.798515438840e-01 0.000000000000e+00
  2.525959361516e-02 2.008221374769e-01 0.000000000000e+00
  2.573513567409e-02 2.223903225991e-01 0.000000000000e+00
  2.937428779328e-02 2.424675875986e-01 0.000000000000e+00
  3.635452743729e-02 2.577723009360e-01 0.000000000000e+00
  4.632078860826e-02 2.647560574191e-01 0.000000000000e+00
  5.828963694874e-02 2.604741729528e-01 0.000000000000e+00
  7.066627587689e-02 2.433508927741e-01 0.000000000000e+00
  8.145039685689e-02 2.138660135408e-01 0.000000000000e+00
  8.865367096333e-02 1.750585785415e-01 0.000000000000e+00
  9.084971457444e-02 1.325343663606e-01 0.000000000000e+00
  8.767563774777e-02 9.361849422672e-02 0.000000000000e+00
  8.006535303166e-02 6.558064025909e-02 0.000000000000e+00
  7.005967050502e-02 5.339792389998e-02 0.000000000000e+00
  6.019684050336e-02 5.797101316975e-02 0.000000000000e+00
  5.267360056070e-02 7.569423147065e-02 0.000000000000e+00
  4.858774779681e-02 9.969463259983e-02 0.000000000000e+00
  4.755958301195e-02 1.222078945461e-01 0.000000000000e+00
  4.787888297176e-02 1.369872056626e-01 0.000000000000e+00
  4.710640751478e-02 1.407141819520e-01 0.000000000000e+00
  4.287954359414e-02 1.330229550057e-01 0.000000000000e+00
  3.361289930027e-02 1.155104087084e-01 0.000000000000e+00
  1.886247131110e-02 9.050864401618e-02 0.000000000000e+00
  -7.171594292719e-04 6.026355840895e-02 0.000000000000e+00
  -2.373494524636e-02 2.669499809879e-02 0.000000000000e+00
  -4.856760750501e-02 -8.513257265279e-03 0.000000000000e+00
  -7.382380524847e-02 -4.385949488354e-02 0.000000000000e+00
  -9.863895118653e-02 -7.816680578679e-02 0.000000000000e+00
  -1.227443958797e-01 -1.107726567503e-01 0.000000000000e+00
  -1.463236399134e-01 -1.414541302010e-01 0.000000000000e+00
  -1.697238306808e-01 -1.698937326529e-01 0.000000000000e+00
  -1.931263625653e-01 -1.948200433383e-01 0.000000000000e+00
  -2.162862733349e-01 -2.132906359094e-01 0.000000000000e+00
  -2.384215801483e-01 -2.206860348502e-01 0.000000000000e+00
  -2.582804102708e-01 -2.117328547176e-01 0.000000000000e+00
  -2.743575766915e-01 -1.823616544888e-01 0.000000000000e+00
  -2.851939263480e-01 -1.317029581030e-01 0.000000000000e+00
  -2.896796947649e-01 -6.332937185620e-02 0.000000000000e+00
  -2.872927377343e-01 1.490655407604e-02 0.000000000000e+00
  -2.782243641821e-01 9.252206762184e-02 0.000000000000e+00
  -2.633717913727e-01 1.590057677719e-01 0.000000000000e+00
  -2.442019579042e-01 2.064416939547e-01 0.000000000000e+00
  -2.225127306063e-01 2.312213131596e-01 0.000000000000e+00
  -2.001321995239e-01 2.342910131253e-01 0.000000000000e+00
  -1.786057510576e-01 2.199910419520e-01 0.000000000000e+00
  -1.589267147144e-01 1.941031711480e-01 0.000000000000e+00
  -1.413691642958e-01 1.619715469529e-01 0.000000000000e+00
  -1.254742946674e-01 1.273843691390e-01 0.000000000000e+00
  -1.102162768367e-01 9.242832445077e-02 0.000000000000e+00
  -9.432879318711e-02 5.803734995770e-02 0.000000000000e+00
  -7.672146716241e-02 2.471357786730e-02 0.000000000000e+00
  -5.687556368835e-02 -7.011734778883e-03 0.000000000000e+00
  -3.509679817851e-02 -3.649793011689e-02 0.000000000000e+00
  -1.252665006676e-02 -6.310553970046e-02 0.000000000000e+00
  9.128317753028e-03 -8.620101763623e-02 0.000000000000e+00
  2.810298443236e-02 -1.049236005184e-01 0.000000000000e+00
  4.317228469207e-02 -1.179004890663e-01 0.000000000000e+00
  5.412627153168e-02 -1.233164455740e-01 0.000000000000e+00
  6.190742265579e-02 -1.196414823302e-01 0.000000000000e+00
  6.829927361442e-02 -1.068842413382e-01 0.000000000000e+00
  7.523756328723e-02 -8.773262665590e-02 0.000000000000e+00
  8.399719957764e-02 -6.775721620729e-02 0.000000000000e+00
  9.459317285172e-02 -5.421507336183e-02 0.000000000000e+00
  1.056636275309e-01 -5.375261958053e-02 0.000000000000e+00
  1.149013541290e-01 -6.999410185709e-02 0.000000000000e+00
  1.198620023749e-01 -1.021462987444e-01 0.000000000000e+00
  1.188207507341e-01 -1.452376983683e-01 0.000000000000e+00
  1.113472324558e-01 -1.917783208672e-01 0.000000000000e+00
  9.841155929850e-02 -2.340031986634e-01 0.000000000000e+00
  8.204084555687e-02 -2.657787044812e-01 0.000000000000e+00
  6.471322241090e-02 -2.836385837870e-01 0.000000000000e+00
  4.873705040492e-02 -2.869305851293e-01 0.000000000000e+00
  3.581125129572e-02 -2.773663810069e-01 0.000000000000e+00
  2.684555954912e-02 -2.582784893466e-01 0.000000000000e+00
  2.200427845881e-02 -2.337320292358e-01 0.000000000000e+00
  2.087563476152e-02 -2.075290349146e-01 0.000000000000e+00
  2.267444096298e-02 -1.822014115859e-01 0.000000000000e+00
  2.643179522772e-02 -1.582692580709e-01 0.000000000000e+00
  3.116675894759e-02 -1.341661654350e-01 0.000000000000e+00
  3.604123441940e-02 -1.071152622595e-01 0.000000000000e+00
  4.047738127703e-02 -7.483059225056e-02 0.000000000000e+00
  4.420105592969e-02 -3.739248797595e-02 0.000000000000e+00
  4.719231641786e-02 1.661078554825e-03 0.000000000000e+00
  4.956792943495e-02 3.578995648029e-02 0.000000000000e+00
  5.145575611929e-02 5.752604804924e-02 0.000000000000e+00
  5.291760743450e-02 6.140184027012e-02 0.000000000000e+00
  5.393989877217e-02 4.646866078990e-02 0.000000000000e+00
  5.447140914953e-02 1.726261646882e-02 0.000000000000e+00
  0.000000000000e+00 0.000000000000e+00 0.000000000000e+00
  0.000000000000e+00 0.000000000000e+00 0.000000000000e+00
  5.552666749348e-02 -1.634952929805e-02 0.000000000000e+00
  5.476012679629e-02 -4.373680527772e-02 0.000000000000e+00
  5.329266825812e-02 -5.686972895683e-02 0.000000000000e+00
  5.121742406626e-02 -5.121742406626e-02 0.000000000000e+00
  4.859140051965e-02 -2.774320509051e-02 0.000000000000e+00
  4.538024906036e-02 8.019805124287e-03 0.000000000000e+00
  4.146094738166e-02 4.842998129550e-02 0.000000000000e+00
  3.671479199882e-02 8.663045792119e-02 0.000000000000e+00
  3.118923103187e-02 1.186516293370e-01 0.000000000000e+00
  2.525147215098e-02 1.439686198597e-01 0.000000000000e+00
  1.964626839588e-02 1.645487517759e-01 0.000000000000e+00
  1.541756138803e-02 1.830930519907e-01 0.000000000000e+00
  1.372213945519e-02 2.013936612783e-01 0.000000000000e+00
  1.560042268013e-02 2.194649735138e-01 0.000000000000e+00
  2.175513969104e-02 2.355990675538e-01 0.000000000000e+00
  3.235243326623e-02 2.470632877616e-01 0.000000000000e+00
  4.684929504062e-02 2.510019476481e-01 0.000000000000e+00
  6.388467019191e-02 2.452240592321e-01 0.000000000000e+00
  8.131925769241e-02 2.287897800662e-01 0.000000000000e+00
  9.651615225905e-02 2.024461107021e-01 0.000000000000e+00
  1.068856094247e-01 1.689057501081e-01 0.000000000000e+00
  1.105876371574e-01 1.327891234501e-01 0.000000000000e+00
  1.071600355753e-01 9.996541554608e-02 0.000000000000e+00