# vtk DataFile Version 3.0
Karman Output
ASCII
DATASET RECTILINEAR_GRID
DIMENSIONS 101 101 1
X_COORDINATES 101 float
   0.000000000000e+00   9.900990099010e-03   1.980198019802e-02   2.970297029703e-02   3.960396039604e-02   4.950495049505e-02   5.940594059406e-02   6.930693069307e-02   7.920792079208e-02   8.910891089109e-02   9.900990099010e-02   1.089108910891e-01   1.188118811881e-01   1.287128712871e-01   1.386138613861e-01   1.485148514851e-01   1.584158415842e-01   1.683168316832e-01   1.782178217822e-01   1.881188118812e-01   1.980198019802e-01   2.079207920792e-01   2.178217821782e-01   2.277227722772e-01   2.376237623762e-01   2.475247524752e-01   2.574257425743e-01   2.673267326733e-01   2.772277227723e-01   2.871287128713e-01   2.970297029703e-01   3.069306930693e-01   3.168316831683e-01   3.267326732673e-01   3.366336633663e-01   3.465346534653e-01   3.564356435644e-01   3.663366336634e-01   3.762376237624e-01   3.861386138614e-01   3.960396039604e-01   4.059405940594e-01   4.158415841584e-01   4.257425742574e-01   4.356435643564e-01   4.455445544554e-01   4.554455445545e-01   4.653465346535e-01   4.752475247525e-01   4.851485148515e-01   4.950495049505e-01   5.049504950495e-01   5.148514851485e-01   5.247524752475e-01   5.346534653465e-01   5.445544554455e-01   5.544554455446e-01   5.643564356436e-01   5.742574257426e-01   5.841584158416e-01   5.940594059406e-01   6.039603960396e-01   6.138613861386e-01   6.237623762376e-01   6.336633663366e-01   6.435643564356e-01   6.534653465347e-01   6.633663366337e-01   6.732673267327e-01   6.831683168317e-01   6.930693069307e-01   7.029702970297e-01   7.128712871287e-01   7.227722772277e-01   7.326732673267e-01   7.425742574257e-01   7.524752475248e-01   7.623762376238e-01   7.722772277228e-01   7.821782178218e-01   7.920792079208e-01   8.019801980198e-01   8.118811881188e-01   8.217821782178e-01   8.316831683168e-01   8.415841584158e-01   8.514851485149e-01   8.613861386139e-01   8.712871287129e-01   8.811881188119e-01   8.910891089109e-01   9.009900990099e-01   9.108910891089e-01   9.207920792079e-01   9.306930693069e-01   9.405940594059e-01   9.504950495050e-01   9.603960396040e-01   9.702970297030e-01   9.801980198020e-01   9.900990099010e-01
Y_COORDINATES 101 float
   0.000000000000e+00   9.900990099010e-03   1.980198019802e-02   2.970297029703e-02   3.960396039604e-02   4.950495049505e-02   5.940594059406e-02   6.930693069307e-02   7.920792079208e-02   8.910891089109e-02   9.900990099010e-02   1.089108910891e-01   1.188118811881e-01   1.287128712871e-01   1.386138613861e-01   1.485148514851e-01   1.584158415842e-01   1.683168316832e-01   1.782178217822e-01   1.881188118812e-01   1.980198019802e-01   2.079207920792e-01   2.178217821782e-01   2.277227722772e-01   2.376237623762e-01   2.475247524752e-01   2.574257425743e-01   2.673267326733e-01   2.772277227723e-01   2.871287128713e-01   2.970297029703e-01   3.069306930693e-01   3.168316831683e-01   3.267326732673e-01   3.366336633663e-01   3.465346534653e-01   3.564356435644e-01   3.663366336634e-01   3.762376237624e-01   3.861386138614e-01   3.960396039604e-01   4.059405940594e-01   4.158415841584e-01   4.257425742574e-01   4.356435643564e-01   4.455445544554e-01   4.554455445545e-01   4.653465346535e-01   4.752475247525e-01   4.851485148515e-01   4.950495049505e-01   5.049504950495e-01   5.148514851485e-01   5.247524752475e-01   5.346534653465e-01   5.445544554455e-01   5.544554455446e-01   5.643564356436e-01   5.742574257426e-01   5.841584158416e-01   5.940594059406e-01   6.039603960396e-01   6.138613861386e-01   6.237623762376e-01   6.336633663366e-01   6.435643564356e-01   6.534653465347e-01   6.633663366337e-01   6.732673267327e-01   6.831683168317e-01   6.930693069307e-01   7.029702970297e-01   7.128712871287e-01   7.227722772277e-01   7.326732673267e-01   7.425742574257e-01   7.524752475248e-01   7.623762376238e-01   7.722772277228e-01   7.821782178218e-01   7.920792079208e-01   8.019801980198e-01   8.118811881188e-01   8.217821782178e-01   8.316831683168e-01   8.415841584158e-01   8.514851485149e-01   8.613861386139e-01   8.712871287129e-01   8.811881188119e-01   8.910891089109e-01   9.009900990099e-01   9.108910891089e-01   9.207920792079e-01   9.306930693069e-01   9.405940594059e-01   9.504950495050e-01   9.603960396040e-01   9.702970297030e-01   9.801980198020e-01   9.900990099010e-01
Z_COORDINATES 1 float
  0.000000000000e+00
POINT_DATA 10201
VECTORS E_field float
  0.000000000000e+00 0.000000000000e+00 0.000000000000e+00
  0.000000000000e+00 0.000000000000e+00 0.000000000000e+00
  0.000000000000e+00 0.000000000000e+00 0.000000000000e+00
  0.000000000000e+00 0.000000000000e+00 0.000000000000e+00
  0.000000000000e+00 0.000000000000e+00 0.000000000000e+00
  0.000000000000e+00 0.000000000000e+00 0.000000000000e+00
  0.000000000000e+00 0.000000000000e+00 0.000000000000e+00
  0.000000000000e+00 0.000000000000e+00 0.000000000000e+00
  0.000000000000e+00 0.000000000000e+00 0.000000000000e+00
  0.000000000000e+00 0.000000000000e+00 0.000000000000e+00
  0.000000000000e+00 0.000000000000e+00 0.000000000000e+00
  0.000000000000e+00 0.000000000000e+00 0.000000000000e+00
  0.000000000000e+00 0.000000000000e+00 0.000000000000e+00
  0.000000000000e+00 0.000000000000e+00 0.000000000000e+00
  0.000000000000e+00 0.000000000000e+00 0.000000000000e+00
  0.000000000000e+00 0.000000000000e+00 0.000000000000e+00
  0.000000000000e+00 0.000000000000e+00 0.000000000000e+00
  0.000000000000e+00 0.000000000000e+00 0.000000000000e+00
  0.000000000000e+00 0.000000000000e+00 0.000000000000e+00
  0.000000000000e+00 0.000000000000e+00 0.000000000000e+00
  0.000000000000e+00 0.000000000000e+00 0.000000000000e+00
  0.000000000000e+00 0.000000000000e+00 0.000000000000e+00
  0.000000000000e+00 0.000000000000e+00 0.000000000000e+00
  0.000000000000e+00 0.000000000000e+00 0.000000000000e+00
  0.000000000000e+00 0.000000000000e+00 0.000000000000e+00
  0.000000000000e+00 0.000000000000e+00 0.000000000000e+00
  0.000000000000e+00 0.000000000000e+00 0.000000000000e+00
  0.000000000000e+00 0.000000000000e+00 0.000000000000e+00
  0.000000000000e+00 0.000000000000e+00 0.000000000000e+00
  0.000000000000e+00 0.000000000000e+00 0.000000000000e+00
  0.000000000000e+00 0.000000000000e+00 0.000000000000e+00
  0.000000000000e+00 0.000000000000e+00 0.000000000000e+00
  0.000000000000e+00 0.000000000000e+00 0.000000000000e+00
  0.000000000000e+00 0.000000000000e+00 0.000000000000e+00
  0.000000000000e+00 0.000000000000e+00 0.000000000000e+00
  0.000000000000e+00 0.000000000000e+00 0.000000000000e+00
  0.000000000000e+00 0.000000000000e+00 0.000000000000e+00
  0.000000000000e+00 0.000000000000e+00 0.000000000000e+00
  0.000000000000e+00 0.000000000000e+00 0.000000000000e+00
  0.000000000000e+00 0.000000000000e+00 0.000000000000e+00
  0.000000000000e+00 0.000000000000e+00 0.000000000000e+00
  0.000000000000e+00 0.000000000000e+00 0.000000000000e+00
  0.000000000000e+00 0.000000000000e+00 0.000000000000e+00
  0.000000000000e+00 0.000000000000e+00 0.000000000000e+00
  0.000000000000e+00 0.000000000000e+00 0.000000000000e+00
  0.000000000000e+00 0.000000000000e+00 0.000000000000e+00
  0.000000000000e+00 0.000000000000e+00 0.000000000000e+00
  0.000000000000e+00 0.000000000000e+00 0.000000000000e+00
  0.000000000000e+00 0.000000000000e+00 0.000000000000e+00
  0.000000000000e+00 0.000000000000e+00 0.000000000000e+00
  0.000000000000e+00 0.000000000000e+00 0.000000000000e+00
  0.000000000000e+00 0.000000000000e+00 0.000000000000e+00
  0.000000000000e+00 0.000000000000e+00 0.000000000000e+00
  0.000000000000e+00 0.000000000000e+00 0.000000000000e+00
  0.000000000000e+00 0.000000000000e+00 0.000000000000e+00
  0.000000000000e+00 0.000000000000e+00 0.000000000000e+00
  0.000000000000e+00 0.000000000000e+00 0.000000000000e+00
  0.000000000000e+00 0.000000000000e+00 0.000000000000e+00
  0.000000000000e+00 0.000000000000e+00 0.000000000000e+00
  0.000000000000e+00 0.000000000000e+00 0.000000000000e+00
  0.000000000000e+00 0.000000000000e+00 0.000000000000e+00
  0.000000000000e+00 0.000000000000e+00 0.000000000000e+00
  0.000000000000e+00 0.000000000000e+00 0.000000000000e+00
  0.000000000000e+00 0.000000000000e+00 0.000000000000e+00
  0.000000000000e+00 0.000000000000e+00 0.000000000000e+00
  0.000000000000e+00 0.000000000000e+00 0.000000000000e+00
  0.000000000000e+00 0.000000000000e+00 0.000000000000e+00
  0.000000000000e+00 0.000000000000e+00 0.000000000000e+00
  0.000000000000e+00 0.000000000000e+00 0.000000000000e+00
  0.000000000000e+00 0.000000000000e+00 0.000000000000e+00
  0.000000000000e+00 0.000000000000e+00 0.000000000000e+00
  0.000000000000e+00 0.000000000000e+00 0.000000000000e+00
  0.000000000000e+00 0.000000000000e+00 0.000000000000e+00
  0.000000000000e+00 0.000000000000e+00 0.000000000000e+00
  0.000000000000e+00 0.000000000000e+00 0.000000000000e+00
  0.000000000000e+00 0.000000000000e+00 0.000000000000e+00
  0.000000000000e+00 0.000000000000e+00 0.000000000000e+00
  0.000000000000e+00 0.000000000000e+00 0.000000000000e+00
  0.000000000000e+00 0.000000000000e+00 0.000000000000e+00
  0.000000000000e+00 0.000000000000e+00 0.000000000000e+00
  0.000000000000e+00 0.000000000000e+00 0.000000000000e+00
  0.000000000000e+00 0.000000000000e+00 0.000000000000e+00
  0.000000000000e+00 0.000000000000e+00 0.000000000000e+00
  0.000000000000e+00 0.000000000000e+00 0.000000000000e+00
  0.000000000000e+00 0.000000000000e+00 0.000000000000e+00
  0.000000000000e+00 0.000000000000e+00 0.000000000000e+00
  0.000000000000e+00 0.000000000000e+00 0.000000000000e+00
  0.000000000000e+00 0.000000000000e+00 0.000000000000e+00
  0.000000000000e+00 0.000000000000e+00 0.000000000000e+00
  0.000000000000e+00 0.000000000000e+00 0.000000000000e+00
  0.000000000000e+00 0.000000000000e+00 0.000000000000e+00
  0.000000000000e+00 0.000000000000e+00 0.000000000000e+00
  0.000000000000e+00 0.000000000000e+00 0.000000000000e+00
  0.000000000000e+00 0.000000000000e+00 0.000000000000e+00
  0.000000000000e+00 0.000000000000e+00 0.000000000000e+00
  0.000000000000e+00 0.000000000000e+00 0.000000000000e+00
  0.000000000000e+00 0.000000000000e+00 0.000000000000e+00
  0.000000000000e+00 0.000000000000e+00 0.000000000000e+00
  0.000000000000e+00 0.000000000000e+00 0.000000000000e+00
  0.000000000000e+00 0.000000000000e+00 0.000000000000e+00
  0.000000000000e+00 0.000000000000e+00 0.000000000000e+00
  0.000000000000e+00 0.000000000000e+00 0.000000000000e+00
  1.023425756514e-02 -1.023425756514e-02 0.000000000000e+00
  1.021737595200e-02 -3.174904835306e-02 0.000000000000e+00
  1.016929648334e-02 -5.613618307253e-02 0.000000000000e+00
  1.006284676086e-02 -8.442386428163e-02 0.000000000000e+00
  9.861870296946e-03 -1.163398106375e-01 0.000000000000e+00
  9.528808427483e-03 -1.499230716452e-01 0.000000000000e+00
  9.036758436780e-03 -1.813950702149e-01 0.000000000000e+00
  8.385424240983e-03 -2.054553840921e-01 0.000000000000e+00
  7.618379963044e-03 -2.161178832455e-01 0.000000000000e+00
  6.836778246387e-03 -2.080636343327e-01 0.000000000000e+00
  6.203034050778e-03 -1.782681544207e-01 0.000000000000e+00
  5.928718312432e-03 -1.274287503446e-01 0.000000000000e+00
  6.244960771514e-03 -6.060411112773e-02 0.000000000000e+00
  7.359983514811e-03 1.338238068466e-02 0.000000000000e+00
  9.413739146356e-03 8.380908039009e-02 0.000000000000e+00
  1.244100143385e-02 1.406912025046e-01 0.000000000000e+00
  1.635133399749e-02 1.772975790118e-01 0.000000000000e+00
  2.092940922012e-02 1.916387255600e-01 0.000000000000e+00
  2.585457327681e-02 1.863875639765e-01 0.000000000000e+00
  3.073516339634e-02 1.673083431472e-01 0.000000000000e+00
  3.515089102629e-02 1.408756841103e-01 0.000000000000e+00
  3.869637242774e-02 1.121094747479e-01 0.000000000000e+00
  4.102157448192e-02 8.355285421706e-02 0.000000000000e+00
  4.186934630866e-02 5.576638270104e-02 0.000000000000e+00
  4.111232855339e-02 2.892591745949e-02 0.000000000000e+00
  3.878779299074e-02 4.503544041769e-03 0.000000000000e+00
  3.512060597083e-02 -1.404925730253e-02 0.000000000000e+00
  3.051814625723e-02 -2.214045804491e-02 0.000000000000e+00
  2.552373503396e-02 -1.606269627362e-02 0.000000000000e+00
  2.072830243888e-02 4.797637469376e-03 0.000000000000e+00
  1.665749805413e-02 3.669274915818e-02 0.000000000000e+00
  1.366398512091e-02 7.188115617095e-02 0.000000000000e+00
  1.185615250973e-02 1.006090278622e-01 0.000000000000e+00
  1.108505713086e-02 1.140239925203e-01 0.000000000000e+00
  1.099564507288e-02 1.069815046533e-01 0.000000000000e+00
  1.113148615888e-02 7.974644998055e-02 0.000000000000e+00
  1.106819036781e-02 3.800382307927e-02 0.000000000000e+00
  1.054180635060e-02 -8.786987856916e-03 0.000000000000e+00
  9.536880846043e-03 -5.008155619938e-02 0.000000000000e+00
  8.306186844066e-03 -7.707302862896e-02 0.000000000000e+00
  7.310627400622e-03 -8.481117170283e-02 0.000000000000e+00
  7.090699731334e-03 -7.312541948958e-02 0.000000000000e+00
  8.103678239049e-03 -4.627629367444e-02 0.000000000000e+00
  1.057457676594e-02 -1.159137695871e-02 0.000000000000e+00
  1.440680837072e-02 2.246688904515e-02 0.000000000000e+00
  1.917938705400e-02 4.829592741881e-02 0.000000000000e+00
  2.422888329427e-02 6.076090557066e-02 0.000000000000e+00
  2.878852546086e-02 5.811454148330e-02 0.000000000000e+00
  3.214417404201e-02 4.212102915832e-02 0.000000000000e+00
  3.376990137414e-02 1.745344333149e-02 0.000000000000e+00
  3.341896715240e-02 -9.447222757313e-03 0.000000000000e+00
  3.116028542434e-02 -3.180733499759e-02 0.000000000000e+00
  2.736011795706e-02 -4.399322643264e-02 0.000000000000e+00
  2.261360706417e-02 -4.277192413464e-02 0.000000000000e+00
  1.763496423135e-02 -2.812867970197e-02 0.000000000000e+00
  1.312240962152e-02 -3.446477743405e-03 0.000000000000e+00
  9.623692197131e-03 2.506814327185e-02 0.000000000000e+00
  7.434717245493e-03 4.968974670739e-02 0.000000000000e+00
  6.560785732747e-03 6.300313793383e-02 0.000000000000e+00
  6.754587728021e-03 5.987209650069e-02 0.000000000000e+00
  7.621560280353e-03 3.904291442544e-02 0.000000000000e+00
  8.760630711170e-03 3.866328624798e-03 0.000000000000e+00
  9.895961364426e-03 -3.823396200004e-02 0.000000000000e+00
  1.095808798121e-02 -7.758994085661e-02 0.000000000000e+00
  1.208978677688e-02 -1.050017142541e-01 0.000000000000e+00
  1.357695924520e-02 -1.145078281948e-01 0.000000000000e+00
  1.572904508412e-02 -1.052452845119e-01 0.000000000000e+00
  1.874889722445e-02 -8.168707884538e-02 0.000000000000e+00
  2.263412944857e-02 -5.212445157721e-02 0.000000000000e+00
  2.714082026589e-02 -2.592234170992e-02 0.000000000000e+00
  3.182016527696e-02 -1.054785965673e-02 0.000000000000e+00
  3.611546343803e-02 -9.467742495991e-03 0.000000000000e+00
  3.948780150846e-02 -2.167758688482e-02 0.000000000000e+00
  4.153062169895e-02 -4.295416682343e-02 0.000000000000e+00
  4.203984941819e-02 -6.816167444867e-02 0.000000000000e+00
  4.102539492695e-02 -9.345303016416e-02 0.000000000000e+00
  3.867296142488e-02 -1.172861232972e-01 0.000000000000e+00
  3.528085782898e-02 -1.398350877961e-01 0.000000000000e+00
  3.119798163802e-02 -1.612716915652e-01 0.000000000000e+00
  2.677837817541e-02 -1.800060838140e-01 0.000000000000e+00
  2.235378741003e-02 -1.919655341401e-01 0.000000000000e+00
  1.821709026251e-02 -1.914011744925e-01 0.000000000000e+00
  1.460915003304e-02 -1.729147108510e-01 0.000000000000e+00
  1.170581071047e-02 -1.338112774653e-01 0.000000000000e+00
  9.606118720975e-03 -7.574980848754e-02 0.000000000000e+00
  8.325147016320e-03 -4.974330261082e-03 0.000000000000e+00
  7.795419525406e-03 6.900458400618e-02 0.000000000000e+00
  7.880067775783e-03 1.357966992862e-01 0.000000000000e+00
  8.397934357687e-03 1.867139234796e-01 0.000000000000e+00
  9.156241905631e-03 2.166621411977e-01 0.000000000000e+00
  9.982609914060e-03 2.248127604386e-01 0.000000000000e+00
  1.074796809168e-02 2.140460092410e-01 0.000000000000e+00
  1.137574775105e-02 1.895825352437e-01 0.000000000000e+00
  1.183813351895e-02 1.573792181773e-01 0.000000000000e+00
  1.214394982368e-02 1.227687643862e-01 0.000000000000e+00
  1.232360569827e-02 8.959893648427e-02 0.000000000000e+00
  1.241524263414e-02 5.990885295250e-02 0.000000000000e+00
  1.245429492229e-02 3.403696544471e-02 0.000000000000e+00
  1.246696922495e-02 1.100025177517e-02 0.000000000000e+00
  0.000000000000e+00 0.000000000000e+00 0.000000000000e+00
  0.000000000000e+00 0.000000000000e+00 0.000000000000e+00
  3.174904835306e-02 -1.021737595200e-02 0.000000000000e+00
  3.168403269412e-02 -3.168403269412e-02 0.000000000000e+00
  3.151207078444e-02 -5.598115735311e-02 0.000000000000e+00
  3.115389600488e-02 -8.411426549900e-02 0.000000000000e+00
  3.050486225813e-02 -1.157993992095e-01 0.000000000000e+00
  2.945799074282e-02 -1.490835496885e-01 0.000000000000e+00
  2.794017528952e-02 -1.802247267277e-01 0.000000000000e+00
  2.595951347921e-02 -2.039937315733e-01 0.000000000000e+00
  2.365574341592e-02 -2.145087214231e-01 0.000000000000e+00
  2.133903030852e-02 -2.065744813310e-01 0.000000000000e+00
  1.949785537771e-02 -1.772823882960e-01 0.000000000000e+00
  1.875930743677e-02 -1.274016527901e-01 0.000000000000e+00
  1.979767212183e-02 -6.198581582640e-02 0.000000000000e+00
  2.320638228284e-02 1.024035247902e-02 0.000000000000e+00
  2.936436898514e-02 7.873936626189e-02 0.000000000000e+00
  3.833154833198e-02 1.337664749985e-01 0.000000000000e+00
  4.979854179066e-02 1.688449804956e-01 0.000000000000e+00
  6.309953813042e-02 1.822122525138e-01 0.000000000000e+00
  7.728201260985e-02 1.767063984866e-01 0.000000000000e+00
  9.121597019778e-02 1.581749609297e-01 0.000000000000e+00
  1.037192573722e-01 1.330900515235e-01 0.000000000000e+00
  1.136767997338e-01 1.063920835716e-01 0.000000000000e+00
  1.201426537824e-01 8.047918929056e-02 0.000000000000e+00
  1.224297703303e-01 5.570515925294e-02 0.000000000000e+00
  1.202002758731e-01 3.197365312006e-02 0.000000000000e+00
  1.135575941880e-01 1.042302562892e-02 0.000000000000e+00
  1.031146634433e-01 -5.858621125073e-03 0.000000000000e+00
  8.999029291788e-02 -1.260426398332e-02 0.000000000000e+00
  7.569053566008e-02 -6.304721854123e-03 0.000000000000e+00
  6.186891223197e-02 1.365671907311e-02 0.000000000000e+00
  5.001091202392e-02 4.376247214734e-02 0.000000000000e+00
  4.112691652682e-02 7.668894161233e-02 0.000000000000e+00
  3.554469114586e-02 1.031913004134e-01 0.000000000000e+00
  3.286697795791e-02 1.148905285367e-01 0.000000000000e+00
  3.211401471887e-02 1.069573439355e-01 0.000000000000e+00
  3.202064436797e-02 7.972813996624e-02 0.000000000000e+00
  3.141538526354e-02 3.869068799416e-02 0.000000000000e+00
  2.958303013881e-02 -7.115113621535e-03 0.000000000000e+00
  2.650943198360e-02 -4.767490676195e-02 0.000000000000e+00
  2.293079168567e-02 -7.467034374703e-02 0.000000000000e+00
  2.015838943024e-02 -8.344589485826e-02 0.000000000000e+00
  1.971382579937e-02 -7.382620499668e-02 0.000000000000e+00
  2.287152579018e-02 -4.974618661798e-02 0.000000000000e+00
  3.024182656401e-02 -1.796268325763e-02 0.000000000000e+00
  4.152126424621e-02 1.372652612408e-02 0.000000000000e+00
  5.548462921995e-02 3.830034675525e-02 0.000000000000e+00
  7.021529854065e-02 5.097632074620e-02 0.000000000000e+00
  8.349901799562e-02 5.005576475373e-02 0.000000000000e+00
  9.326966816293e-02 3.705350719520e-02 0.000000000000e+00
  9.800127882962e-02 1.616362733408e-02 0.000000000000e+00
  9.697466204022e-02 -6.779855732098e-03 0.000000000000e+00
  9.038651105743e-02 -2.562786931880e-02 0.000000000000e+00
  7.929757351271e-02 -3.528358712900e-02 0.000000000000e+00
  6.543330625940e-02 -3.287078534112e-02 0.000000000000e+00
  5.086491271563e-02 -1.848278218224e-02 0.000000000000e+00
  3.761988505371e-02 4.665206937174e-03 0.000000000000e+00
  2.729712395875e-02 3.077793703730e-02 0.000000000000e+00
  2.077806259489e-02 5.268798918767e-02 0.000000000000e+00
  1.811494303203e-02 6.354194646693e-02 0.000000000000e+00
  1.863432021134e-02 5.862010874065e-02 0.000000000000e+00
  2.122952201270e-02 3.683272779008e-02 0.000000000000e+00
  2.475427520672e-02 1.412691603783e-03 0.000000000000e+00
  2.839526906287e-02 -4.055664951111e-02 0.000000000000e+00
  3.190753163013e-02 -7.984164254510e-02 0.000000000000e+00
  3.564136449502e-02 -1.076155442363e-01 0.000000000000e+00
  4.035785268878e-02 -1.180976588810e-01 0.000000000000e+00
  4.689836587368e-02 -1.103480528532e-01 0.000000000000e+00
  5.581906274185e-02 -8.852485951462e-02 0.000000000000e+00
  6.710990240591e-02 -6.046274279730e-02 0.000000000000e+00
  8.008786157094e-02 -3.506870047276e-02 0.000000000000e+00
  9.349664244151e-02 -1.948962677581e-02 0.000000000000e+00
  1.057781935711e-01 -1.710282466770e-02 0.000000000000e+00
  1.154260028905e-01 -2.706265210299e-02 0.000000000000e+00
  1.213062534352e-01 -4.549217234049e-02 0.000000000000e+00
  1.228518965338e-01 -6.767853974946e-02 0.000000000000e+00
  1.200904144171e-01 -9.016022825543e-02 0.000000000000e+00
  1.135329209786e-01 -1.116689982654e-01 0.000000000000e+00
  1.039970129007e-01 -1.325242011542e-01 0.000000000000e+00
  9.243831353168e-02 -1.529410026472e-01 0.000000000000e+00
  7.983255412982e-02 -1.713114098676e-01 0.000000000000e+00
  6.710830879687e-02 -1.835113719883e-01 0.000000000000e+00
  5.510616625456e-02 -1.837164969546e-01 0.000000000000e+00
  4.454067841915e-02 -1.664259603240e-01 0.000000000000e+00
  3.595624425942e-02 -1.288122545099e-01 0.000000000000e+00
  2.968262170514e-02 -7.237551689915e-02 0.000000000000e+00
  2.580333619664e-02 -3.188364636312e-03 0.000000000000e+00
  2.415160095079e-02 6.940008111817e-02 0.000000000000e+00
  2.434451387561e-02 1.351236409990e-01 0.000000000000e+00
  2.585626542982e-02 1.853573636307e-01 0.000000000000e+00
  2.811651665940e-02 2.150001422691e-01 0.000000000000e+00
  3.060836233854e-02 2.231565456796e-01 0.000000000000e+00
  3.293966621045e-02 2.126055619504e-01 0.000000000000e+00
  3.487321772139e-02 1.884616513639e-01 0.000000000000e+00
  3.631756778997e-02 1.565933662205e-01 0.000000000000e+00
  3.729203591712e-02 1.222743319111e-01 0.000000000000e+00
  3.788218432600e-02 8.932356467593e-02 0.000000000000e+00
  3.819837939004e-02 5.977639276094e-02 0.000000000000e+00
  3.834428987797e-02 3.398446286019e-02 0.000000000000e+00
  3.839702502092e-02 1.098734491407e-02 0.000000000000e+00
  0.000000000000e+00 0.000000000000e+00 0.000000000000e+00
  0.000000000000e+00 0.000000000000e+00 0.000000000000e+00
  5.613618307253e-02 -1.016929648334e-02 0.000000000000e+00
  5.598115735311e-02 -3.151207078444e-02 0.000000000000e+00
  5.560483714306e-02 -5.560483714306e-02 0.000000000000e+00
  5.488299053595e-02 -8.341056432238e-02 0.000000000000e+00
  5.365433904389e-02 -1.146254151473e-01 0.000000000000e+00
  5.175973391898e-02 -1.473160571105e-01 0.000000000000e+00
  4.910227836098e-02 -1.778169482944e-01 0.000000000000e+00
  4.572412632051e-02 -2.010426961558e-01 0.000000000000e+00
  4.188578298173e-02 -2.113176434386e-01 0.000000000000e+00
  3.812300139704e-02 -2.036860646235e-01 0.000000000000e+00
  3.524993001228e-02 -1.754565586880e-01 0.000000000000e+00
  3.428277475407e-02 -1.275217791989e-01 0.000000000000e+00
  3.628035405517e-02 -6.490163340369e-02 0.000000000000e+00
  4.213025878022e-02 3.897555170243e-03 0.000000000000e+00
  5.233541611886e-02 6.871901952974e-02 0.000000000000e+00
  6.686048460349e-02 1.202945738992e-01 0.000000000000e+00
  8.507873134450e-02 1.526316413952e-01 0.000000000000e+00
  1.058291820427e-01 1.643741445763e-01 0.000000000000e+00
  1.275644493999e-01 1.586267645875e-01 0.000000000000e+00
  1.485490754992e-01 1.413360111416e-01 0.000000000000e+00
  1.670598750196e-01 1.189149146167e-01 0.000000000000e+00
  1.815482498327e-01 9.612130330363e-02 0.000000000000e+00
  1.907515929878e-01 7.508077235494e-02 0.000000000000e+00
  1.937753859983e-01 5.579266663023e-02 0.000000000000e+00
  1.901846082711e-01 3.770641792714e-02 0.000000000000e+00
  1.801225333438e-01 2.139501743419e-02 0.000000000000e+00
  1.644238314805e-01 9.311019677716e-03 0.000000000000e+00
  1.446430348231e-01 5.131262396702e-03 0.000000000000e+00
  1.229183049755e-01 1.198423887136e-02 0.000000000000e+00
  1.016452279061e-01 3.046245884547e-02 0.000000000000e+00
  8.301910246193e-02 5.744085802782e-02 0.000000000000e+00
  6.857172241422e-02 8.634193127807e-02 0.000000000000e+00
  5.884695785817e-02 1.088453006876e-01 0.000000000000e+00
  5.332366856310e-02 1.174375307513e-01 0.000000000000e+00
  5.062249752147e-02 1.078644760122e-01 0.000000000000e+00
  4.895058465802e-02 8.058629112285e-02 0.000000000000e+00
  4.666839464973e-02 4.071998598268e-02 0.000000000000e+00
  4.282329805118e-02 -3.466959834086e-03 0.000000000000e+00
  3.749612740586e-02 -4.292229166718e-02 0.000000000000e+00
  3.185126109035e-02 -7.019945210763e-02 0.000000000000e+00
  2.785869346769e-02 -8.115181644958e-02 0.000000000000e+00
  2.774934416113e-02 -7.556637023999e-02 0.000000000000e+00
  3.334740515062e-02 -5.676178206439e-02 0.000000000000e+00
  4.546883453834e-02 -3.043881762133e-02 0.000000000000e+00
  6.356289397982e-02 -3.170836233871e-03 0.000000000000e+00
  8.570227607846e-02 1.909496247354e-02 0.000000000000e+00
  1.089208738088e-01 3.223243841156e-02 0.000000000000e+00
  1.297981531472e-01 3.463864869652e-02 0.000000000000e+00
  1.451327529551e-01 2.736537360879e-02 0.000000000000e+00
  1.525482081762e-01 1.370469526111e-02 0.000000000000e+00
  1.509155625082e-01 -1.661661101010e-03 0.000000000000e+00
  1.405328801465e-01 -1.377523064317e-02 0.000000000000e+00
  1.230485528682e-01 -1.856296115385e-02 0.000000000000e+00
  1.011491243591e-01 -1.382771584193e-02 0.000000000000e+00
  7.806167368084e-02 1.299921664337e-04 0.000000000000e+00
  5.695419868082e-02 2.040493482617e-02 0.000000000000e+00
  4.035119084971e-02 4.196397763654e-02 0.000000000000e+00
  2.969814810066e-02 5.867405228205e-02 0.000000000000e+00
  2.518850921299e-02 6.472864144652e-02 0.000000000000e+00
  2.590398452131e-02 5.619856095427e-02 0.000000000000e+00
  3.023064218601e-02 3.233241585409e-02 0.000000000000e+00
  3.642898881941e-02 -3.810096483163e-03 0.000000000000e+00
  4.318693207891e-02 -4.573279868173e-02 0.000000000000e+00
  4.998796636367e-02 -8.497879032461e-02 0.000000000000e+00
  5.718398778190e-02 -1.134082508046e-01 0.000000000000e+00
  6.575629798436e-02 -1.255937507496e-01 0.000000000000e+00
  7.684953606486e-02 -1.204857122744e-01 0.000000000000e+00
  9.123710646855e-02 -1.016954673792e-01 0.000000000000e+00
  1.088975471713e-01 -7.624341530711e-02 0.000000000000e+00
  1.288424578367e-01 -5.221089779730e-02 0.000000000000e+00
  1.492515172586e-01 -3.616526974567e-02 0.000000000000e+00
  1.678665860833e-01 -3.132380165314e-02 0.000000000000e+00
  1.825095703481e-01 -3.713246870209e-02 0.000000000000e+00
  1.915506278398e-01 -5.034366377798e-02 0.000000000000e+00
  1.941831080212e-01 -6.700517159205e-02 0.000000000000e+00
  1.904493899987e-01 -8.433839627371e-02 0.000000000000e+00
  1.810660959546e-01 -1.015500427644e-01 0.000000000000e+00
  1.671646072036e-01 -1.192057598262e-01 0.000000000000e+00
  1.500617686582e-01 -1.375979060608e-01 0.000000000000e+00
  1.311180940479e-01 -1.551050724418e-01 0.000000000000e+00
  1.116716955291e-01 -1.675470655623e-01 0.000000000000e+00
  9.299857126538e-02 -1.690055365745e-01 0.000000000000e+00
  7.625576256211e-02 -1.538286241655e-01 0.000000000000e+00
  6.239448501928e-02 -1.189638789659e-01 0.000000000000e+00
  5.205960977081e-02 -6.561539464040e-02 0.000000000000e+00
  4.550680634703e-02 4.836020372204e-04 0.000000000000e+00
  4.256974673935e-02 7.031690929816e-02 0.000000000000e+00
  4.269981692765e-02 1.338838297058e-01 0.000000000000e+00
  4.508027228339e-02 1.827049680139e-01 0.000000000000e+00
  4.879004876819e-02 2.116825101716e-01 0.000000000000e+00
  5.297202414823e-02 2.198003567180e-01 0.000000000000e+00
  5.695952277900e-02 2.096429484094e-01 0.000000000000e+00
  6.033462115393e-02 1.861156150191e-01 0.000000000000e+00
  6.291967229733e-02 1.549100013533e-01 0.000000000000e+00
  6.472362460126e-02 1.211792763472e-01 0.000000000000e+00
  6.587021875939e-02 8.868187767280e-02 0.000000000000e+00
  6.652959400924e-02 5.944250945018e-02 0.000000000000e+00
  6.686539220380e-02 3.383663748847e-02 0.000000000000e+00
  6.700079226754e-02 1.094703507910e-02 0.000000000000e+00
  0.000000000000e+00 0.000000000000e+00 0.000000000000e+00
  0.000000000000e+00 0.000000000000e+00 0.000000000000e+00
  8.442386428163e-02 -1.006284676086e-02 0.000000000000e+00
  8.411426549900e-02 -3.115389600488e-02 0.000000000000e+00
  8.341056432238e-02 -5.488299053595e-02 0.000000000000e+00
  8.215649764774e-02 -8.215649764774e-02 0.000000000000e+00
  8.015488209293e-02 -1.126492147751e-01 0.000000000000e+00
  7.722324742138e-02 -1.444660176862e-01 0.000000000000e+00
  7.327648445589e-02 -1.740627691952e-01 0.000000000000e+00
  6.842890408942e-02 -1.965711428481e-01 0.000000000000e+00
  6.309460971939e-02 -2.066165590375e-01 0.000000000000e+00
  5.805127553106e-02 -1.995810332516e-01 0.000000000000e+00
  5.442557659338e-02 -1.730628197374e-01 0.000000000000e+00
  5.356887246559e-02 -1.280916587634e-01 0.000000000000e+00
  5.682436481908e-02 -6.958482549375e-02 0.000000000000e+00
  6.523213771439e-02 -5.676930360066e-03 0.000000000000e+00
  7.925311937578e-02 5.406736606002e-02 0.000000000000e+00
  9.859606376748e-02 1.010782144925e-01 0.000000000000e+00
  1.222004108254e-01 1.300254070029e-01 0.000000000000e+00
  1.483783559347e-01 1.400519831613e-01 0.000000000000e+00
  1.750722882490e-01 1.345197263309e-01 0.000000000000e+00
  2.001526633148e-01 1.193780482330e-01 0.000000000000e+00
  2.216743494835e-01 1.008403918363e-01 0.000000000000e+00
  2.380330787665e-01 8.334872198801e-02 0.000000000000e+00
  2.480163873323e-01 6.866670194971e-02 0.000000000000e+00
  2.508034951374e-01 5.639583621987e-02 0.000000000000e+00