# vtk DataFile Version 3.0
Karman Output
ASCII
DATASET RECTILINEAR_GRID
DIMENSIONS 101 101 1
X_COORDINATES 101 float
   0.000000000000e+00   9.900990099010e-03   1.980198019802e-02   2.970297029703e-02   3.960396039604e-02   4.950495049505e-02   5.940594059406e-02   6.930693069307e-02   7.920792079208e-02   8.910891089109e-02   9.900990099010e-02   1.089108910891e-01   1.188118811881e-01   1.287128712871e-01   1.386138613861e-01   1.485148514851e-01   1.584158415842e-01   1.683168316832e-01   1.782178217822e-01   1.881188118812e-01   1.980198019802e-01   2.079207920792e-01   2.178217821782e-01   2.277227722772e-01   2.376237623762e-01   2.475247524752e-01   2.574257425743e-01   2.673267326733e-01   2.772277227723e-01   2.871287128713e-01   2.970297029703e-01   3.069306930693e-01   3.168316831683e-01   3.267326732673e-01   3.366336633663e-01   3.465346534653e-01   3.564356435644e-01   3.663366336634e-01   3.762376237624e-01   3.861386138614e-01   3.960396039604e-01   4.059405940594e-01   4.158415841584e-01   4.257425742574e-01   4.356435643564e-01   4.455445544554e-01   4.554455445545e-01   4.653465346535e-01   4.752475247525e-01   4.851485148515e-01   4.950495049505e-01   5.049504950495e-01   5.148514851485e-01   5.247524752475e-01   5.346534653465e-01   5.445544554455e-01   5.544554455446e-01   5.643564356436e-01   5.742574257426e-01   5.841584158416e-01   5.940594059406e-01   6.039603960396e-01   6.138613861386e-01   6.237623762376e-01   6.336633663366e-01   6.435643564356e-01   6.534653465347e-01   6.633663366337e-01   6.732673267327e-01   6.831683168317e-01   6.930693069307e-01   7.029702970297e-01   7.128712871287e-01   7.227722772277e-01   7.326732673267e-01   7.425742574257e-01   7.524752475248e-01   7.623762376238e-01   7.722772277228e-01   7.821782178218e-01   7.920792079208e-01   8.019801980198e-01   8.118811881188e-01   8.217821782178e-01   8.316831683168e-01   8.415841584158e-01   8.514851485149e-01   8.613861386139e-01   8.712871287129e-01   8.811881188119e-01   8.910891089109e-01   9.009900990099e-01   9.108910891089e-01   9.207920792079e-01   9.306930693069e-01   9.405940594059e-01   9.504950495050e-01   9.603960396040e-01   9.702970297030e-01   9.801980198020e-01   9.900990099010e-01
Y_COORDINATES 101 float
   0.000000000000e+00   9.900990099010e-03   1.980198019802e-02   2.970297029703e-02   3.960396039604e-02   4.950495049505e-02   5.940594059406e-02   6.930693069307e-02   7.920792079208e-02   8.910891089109e-02   9.900990099010e-02   1.089108910891e-01   1.188118811881e-01   1.287128712871e-01   1.386138613861e-01   1.485148514851e-01   1.584158415842e-01   1.683168316832e-01   1.782178217822e-01   1.881188118812e-01   1.980198019802e-01   2.079207920792e-01   2.178217821782e-01   2.277227722772e-01   2.376237623762e-01   2.475247524752e-01   2.574257425743e-01   2.673267326733e-01   2.772277227723e-01   2.871287128713e-01   2.970297029703e-01   3.069306930693e-01   3.168316831683e-01   3.267326732673e-01   3.366336633663e-01   3.465346534653e-01   3.564356435644e-01   3.663366336634e-01   3.762376237624e-01   3.861386138614e-01   3.960396039604e-01   4.059405940594e-01   4.158415841584e-01   4.257425742574e-01   4.356435643564e-01   4.455445544554e-01   4.554455445545e-01   4.653465346535e-01   4.752475247525e-01   4.851485148515e-01   4.950495049505e-01   5.049504950495e-01   5.148514851485e-01   5.247524752475e-01   5.346534653465e-01   5.445544554455e-01   5.544554455446e-01   5.643564356436e-01   5.742574257426e-01   5.841584158416e-01   5.940594059406e-01   6.039603960396e-01   6.138613861386e-01   6.237623762376e-01   6.336633663366e-01   6.435643564356e-01   6.534653465347e-01   6.633663366337e-01   6.732673267327e-01   6.831683168317e-01   6.930693069307e-01   7.029702970297e-01   7.128712871287e-01   7.227722772277e-01   7.326732673267e-01   7.425742574257e-01   7.524752475248e-01   7.623762376238e-01   7.722772277228e-01   7.821782178218e-01   7.920792079208e-01   8.019801980198e-01   8.118811881188e-01   8.217821782178e-01   8.316831683168e-01   8.415841584158e-01   8.514851485149e-01   8.613861386139e-01   8.712871287129e-01   8.811881188119e-01   8.910891089109e-01   9.009900990099e-01   9.108910891089e-01   9.207920792079e-01   9.306930693069e-01   9.405940594059e-01   9.504950495050e-01   9.603960396040e-01   9.702970297030e-01   9.801980198020e-01   9.900990099010e-01
Z_COORDINATES 1 float
  0.000000000000e+00
POINT_DATA 10201
VECTORS E_field float
  0.000000000000e+00 0.000000000000e+00 0.000000000000e+00
  0.000000000000e+00 0.000000000000e+00 0.000000000000e+00
  0.000000000000e+00 0.000000000000e+00 0.000000000000e+00
  0.000000000000e+00 0.000000000000e+00 0.000000000000e+00
  0.000000000000e+00 0.000000000000e+00 0.000000000000e+00
  0.000000000000e+00 0.000000000000e+00 0.000000000000e+00
  0.000000000000e+00 0.000000000000e+00 0.000000000000e+00
  0.000000000000e+00 0.000000000000e+00 0.000000000000e+00
  0.000000000000e+00 0.000000000000e+00 0.000000000000e+00
  0.000000000000e+00 0.000000000000e+00 0.000000000000e+00
  0.000000000000e+00 0.000000000000e+00 0.000000000000e+00
  0.000000000000e+00 0.000000000000e+00 0.000000000000e+00
  0.000000000000e+00 0.000000000000e+00 0.000000000000e+00
  0.000000000000e+00 0.000000000000e+00 0.000000000000e+00
  0.000000000000e+00 0.000000000000e+00 0.000000000000e+00
  0.000000000000e+00 0.000000000000e+00 0.000000000000e+00
  0.000000000000e+00 0.000000000000e+00 0.000000000000e+00
  0.000000000000e+00 0.000000000000e+00 0.000000000000e+00
  0.000000000000e+00 0.000000000000e+00 0.000000000000e+00
  0.000000000000e+00 0.000000000000e+00 0.000000000000e+00
  0.000000000000e+00 0.000000000000e+00 0.000000000000e+00
  0.000000000000e+00 0.000000000000e+00 0.000000000000e+00
  0.000000000000e+00 0.000000000000e+00 0.000000000000e+00
  0.000000000000e+00 0.000000000000e+00 0.000000000000e+00
  0.000000000000e+00 0.000000000000e+00 0.000000000000e+00
  0.000000000000e+00 0.000000000000e+00 0.000000000000e+00
  0.000000000000e+00 0.000000000000e+00 0.000000000000e+00
  0.000000000000e+00 0.000000000000e+00 0.000000000000e+00
  0.000000000000e+00 0.000000000000e+00 0.000000000000e+00
  0.000000000000e+00 0.000000000000e+00 0.000000000000e+00
  0.000000000000e+00 0.000000000000e+00 0.000000000000e+00
  0.000000000000e+00 0.000000000000e+00 0.000000000000e+00
  0.000000000000e+00 0.000000000000e+00 0.000000000000e+00
  0.000000000000e+00 0.000000000000e+00 0.000000000000e+00
  0.000000000000e+00 0.000000000000e+00 0.000000000000e+00
  0.000000000000e+00 0.000000000000e+00 0.000000000000e+00
  0.000000000000e+00 0.000000000000e+00 0.000000000000e+00
  0.000000000000e+00 0.000000000000e+00 0.000000000000e+00
  0.000000000000e+00 0.000000000000e+00 0.000000000000e+00
  0.000000000000e+00 0.000000000000e+00 0.000000000000e+00
  0.000000000000e+00 0.000000000000e+00 0.000000000000e+00
  0.000000000000e+00 0.000000000000e+00 0.000000000000e+00
  0.000000000000e+00 0.000000000000e+00 0.000000000000e+00
  0.000000000000e+00 0.000000000000e+00 0.000000000000e+00
  0.000000000000e+00 0.000000000000e+00 0.000000000000e+00
  0.000000000000e+00 0.000000000000e+00 0.000000000000e+00
  0.000000000000e+00 0.000000000000e+00 0.000000000000e+00
  0.000000000000e+00 0.000000000000e+00 0.000000000000e+00
  0.000000000000e+00 0.000000000000e+00 0.000000000000e+00
  0.000000000000e+00 0.000000000000e+00 0.000000000000e+00
  0.000000000000e+00 0.000000000000e+00 0.000000000000e+00
  0.000000000000e+00 0.000000000000e+00 0.000000000000e+00
  0.000000000000e+00 0.000000000000e+00 0.000000000000e+00
  0.000000000000e+00 0.000000000000e+00 0.000000000000e+00
  0.000000000000e+00 0.000000000000e+00 0.000000000000e+00
  0.000000000000e+00 0.000000000000e+00 0.000000000000e+00
  0.000000000000e+00 0.000000000000e+00 0.000000000000e+00
  0.000000000000e+00 0.000000000000e+00 0.000000000000e+00
  0.000000000000e+00 0.000000000000e+00 0.000000000000e+00
  0.000000000000e+00 0.000000000000e+00 0.000000000000e+00
  0.000000000000e+00 0.000000000000e+00 0.000000000000e+00
  0.000000000000e+00 0.000000000000e+00 0.000000000000e+00
  0.000000000000e+00 0.000000000000e+00 0.000000000000e+00
  0.000000000000e+00 0.000000000000e+00 0.000000000000e+00
  0.000000000000e+00 0.000000000000e+00 0.000000000000e+00
  0.000000000000e+00 0.000000000000e+00 0.000000000000e+00
  0.000000000000e+00 0.000000000000e+00 0.000000000000e+00
  0.000000000000e+00 0.000000000000e+00 0.000000000000e+00
  0.000000000000e+00 0.000000000000e+00 0.000000000000e+00
  0.000000000000e+00 0.000000000000e+00 0.000000000000e+00
  0.000000000000e+00 0.000000000000e+00 0.000000000000e+00
  0.000000000000e+00 0.000000000000e+00 0.000000000000e+00
  0.000000000000e+00 0.000000000000e+00 0.000000000000e+00
  0.000000000000e+00 0.000000000000e+00 0.000000000000e+00
  0.000000000000e+00 0.000000000000e+00 0.000000000000e+00
  0.000000000000e+00 0.000000000000e+00 0.000000000000e+00
  0.000000000000e+00 0.000000000000e+00 0.000000000000e+00
  0.000000000000e+00 0.000000000000e+00 0.000000000000e+00
  0.000000000000e+00 0.000000000000e+00 0.000000000000e+00
  0.000000000000e+00 0.000000000000e+00 0.000000000000e+00
  0.000000000000e+00 0.000000000000e+00 0.000000000000e+00
  0.000000000000e+00 0.000000000000e+00 0.000000000000e+00
  0.000000000000e+00 0.000000000000e+00 0.000000000000e+00
  0.000000000000e+00 0.000000000000e+00 0.000000000000e+00
  0.000000000000e+00 0.000000000000e+00 0.000000000000e+00
  0.000000000000e+00 0.000000000000e+00 0.000000000000e+00
  0.000000000000e+00 0.000000000000e+00 0.000000000000e+00
  0.000000000000e+00 0.000000000000e+00 0.000000000000e+00
  0.000000000000e+00 0.000000000000e+00 0.000000000000e+00
  0.000000000000e+00 0.000000000000e+00 0.000000000000e+00
  0.000000000000e+00 0.000000000000e+00 0.000000000000e+00
  0.000000000000e+00 0.000000000000e+00 0.000000000000e+00
  0.000000000000e+00 0.000000000000e+00 0.000000000000e+00
  0.000000000000e+00 0.000000000000e+00 0.000000000000e+00
  0.000000000000e+00 0.000000000000e+00 0.000000000000e+00
  0.000000000000e+00 0.000000000000e+00 0.000000000000e+00
  0.000000000000e+00 0.000000000000e+00 0.000000000000e+00
  0.000000000000e+00 0.000000000000e+00 0.000000000000e+00
  0.000000000000e+00 0.000000000000e+00 0.000000000000e+00
  0.000000000000e+00 0.000000000000e+00 0.000000000000e+00
  0.000000000000e+00 0.000000000000e+00 0.000000000000e+00
  0.000000000000e+00 0.000000000000e+00 0.000000000000e+00
  -6.076444448022e-02 6.076444448022e-02 0.000000000000e+00
  -5.918123565716e-02 1.768794431736e-01 0.000000000000e+00
  -5.614617983773e-02 2.775032337529e-01 0.000000000000e+00
  -5.188152176949e-02 3.546689802142e-01 0.000000000000e+00
  -4.663605681000e-02 4.034763114221e-01 0.000000000000e+00
  -4.062389715877e-02 4.224461326679e-01 0.000000000000e+00
  -3.399291328704e-02 4.132072722506e-01 0.000000000000e+00
  -2.683759845888e-02 3.796352182640e-01 0.000000000000e+00
  -1.925167545208e-02 3.267504535267e-01 0.000000000000e+00
  -1.139646614774e-02 2.597711425168e-01 0.000000000000e+00
  -3.550766637525e-03 1.836169239478e-01 0.000000000000e+00
  3.887220443790e-03 1.028916945155e-01 0.000000000000e+00
  1.045582463254e-02 2.208545374363e-02 0.000000000000e+00
  1.572740667301e-02 -5.436322057642e-02 0.000000000000e+00
  1.941087787794e-02 -1.223213702223e-01 0.000000000000e+00
  2.141940982101e-02 -1.783926428940e-01 0.000000000000e+00
  2.187944865728e-02 -2.202177317813e-01 0.000000000000e+00
  2.108370019055e-02 -2.464865618806e-01 0.000000000000e+00
  1.941317635479e-02 -2.568332455060e-01 0.000000000000e+00
  1.726013227425e-02 -2.519517241187e-01 0.000000000000e+00
  1.497367087658e-02 -2.340574181040e-01 0.000000000000e+00
  1.283224420040e-02 -2.073697571613e-01 0.000000000000e+00
  1.103467649603e-02 -1.780042698782e-01 0.000000000000e+00
  9.700269346092e-03 -1.528536299718e-01 0.000000000000e+00
  8.875656293457e-03 -1.376485404255e-01 0.000000000000e+00
  8.551712024485e-03 -1.350229544254e-01 0.000000000000e+00
  8.690712221248e-03 -1.436082720543e-01 0.000000000000e+00
  9.253931985896e-03 -1.587505596803e-01 0.000000000000e+00
  1.021291081982e-02 -1.745887482690e-01 0.000000000000e+00
  1.153305251676e-02 -1.864564524173e-01 0.000000000000e+00
  1.313553700634e-02 -1.923794180492e-01 0.000000000000e+00
  1.486105155059e-02 -1.929892472283e-01 0.000000000000e+00
  1.646277876598e-02 -1.901200589643e-01 0.000000000000e+00
  1.764212376900e-02 -1.850755287260e-01 0.000000000000e+00
  1.811795742823e-02 -1.776031883941e-01 0.000000000000e+00
  1.770368716418e-02 -1.660459558531e-01 0.000000000000e+00
  1.636512825286e-02 -1.484185107409e-01 0.000000000000e+00
  1.424313072089e-02 -1.237363302423e-01 0.000000000000e+00
  1.163847154840e-02 -9.293893041251e-02 0.000000000000e+00
  8.965128662305e-03 -5.902817117748e-02 0.000000000000e+00
  6.681117861407e-03 -2.637662721258e-02 0.000000000000e+00
  5.207260457213e-03 5.409238043064e-04 0.000000000000e+00
  4.846127286157e-03 1.851026187447e-02 0.000000000000e+00
  5.715330809080e-03 2.647860912805e-02 0.000000000000e+00
  7.709410684390e-03 2.562266693242e-02 0.000000000000e+00
  1.050188226331e-02 1.861631950918e-02 0.000000000000e+00
  1.359347577744e-02 8.518329149806e-03 0.000000000000e+00
  1.640366701563e-02 -2.185386764170e-03 0.000000000000e+00
  1.839026426041e-02 -1.205751579955e-02 0.000000000000e+00
  1.916923058538e-02 -2.069852600919e-02 0.000000000000e+00
  1.860094904296e-02 -2.842651458740e-02 0.000000000000e+00
  1.681610458051e-02 -3.579976003176e-02 0.000000000000e+00
  1.417394338236e-02 -4.305477245370e-02 0.000000000000e+00
  1.116912021348e-02 -4.956931679802e-02 0.000000000000e+00
  8.318758601356e-03 -5.359152741222e-02 0.000000000000e+00
  6.061998049314e-03 -5.250639949753e-02 0.000000000000e+00
  4.692748273635e-03 -4.369277427119e-02 0.000000000000e+00
  4.331217805236e-03 -2.565268063678e-02 0.000000000000e+00
  4.928763922031e-03 1.146775539537e-03 0.000000000000e+00
  6.296291194458e-03 3.417825535304e-02 0.000000000000e+00
  8.147058428135e-03 6.957866168491e-02 0.000000000000e+00
  1.014742861690e-02 1.033598597295e-01 0.000000000000e+00
  1.197142479682e-02 1.325801099732e-01 0.000000000000e+00
  1.335498831814e-02 1.560107333886e-01 0.000000000000e+00
  1.414263238119e-02 1.740455322282e-01 0.000000000000e+00
  1.431468950731e-02 1.878856129975e-01 0.000000000000e+00
  1.398277948908e-02 1.983587942182e-01 0.000000000000e+00
  1.334919522521e-02 2.050046400285e-01 0.000000000000e+00
  1.264117831500e-02 2.060602206008e-01 0.000000000000e+00
  1.204450349782e-02 1.995589697636e-01 0.000000000000e+00
  1.166198619482e-02 1.850499974108e-01 0.000000000000e+00
  1.150900217716e-02 1.649158044011e-01 0.000000000000e+00
  1.153876795062e-02 1.443511086487e-01 0.000000000000e+00
  1.167837082932e-02 1.297903509456e-01 0.000000000000e+00
  1.185885247198e-02 1.264826006020e-01 0.000000000000e+00
  1.203352540509e-02 1.364131590177e-01 0.000000000000e+00
  1.218669437606e-02 1.575589628684e-01 0.000000000000e+00
  1.233384779716e-02 1.847134013397e-01 0.000000000000e+00
  1.250859018054e-02 2.113099464824e-01 0.000000000000e+00
  1.273099300520e-02 2.312781188715e-01 0.000000000000e+00
  1.296175208765e-02 2.401566431948e-01 0.000000000000e+00
  1.306119424770e-02 2.352767174940e-01 0.000000000000e+00
  1.277971874127e-02 2.153921415052e-01 0.000000000000e+00
  1.179764995677e-02 1.803084215904e-01 0.000000000000e+00
  9.809424143211e-03 1.308026235545e-01 0.000000000000e+00
  6.621925301766e-03 6.872105287426e-02 0.000000000000e+00
  2.224969728869e-03 -3.039219182180e-03 0.000000000000e+00
  -3.198295676933e-03 -8.079636394580e-02 0.000000000000e+00
  -9.326269531682e-03 -1.604343237898e-01 0.000000000000e+00
  -1.579424519289e-02 -2.375626239922e-01 0.000000000000e+00
  -2.228817247177e-02 -3.073919016317e-01 0.000000000000e+00
  -2.859831895868e-02 -3.645338254325e-01 0.000000000000e+00
  -3.461548593341e-02 -4.030866803023e-01 0.000000000000e+00
  -4.027972339359e-02 -4.172479436795e-01 0.000000000000e+00
  -4.551181207497e-02 -4.024010353081e-01 0.000000000000e+00
  -5.016276351410e-02 -3.563561626100e-01 0.000000000000e+00
  -5.400565846962e-02 -2.803267033631e-01 0.000000000000e+00
  -5.677371879789e-02 -1.793066932161e-01 0.000000000000e+00
  -5.822824976915e-02 -6.170502885483e-02 0.000000000000e+00
  0.000000000000e+00 0.000000000000e+00 0.000000000000e+00
  0.000000000000e+00 0.000000000000e+00 0.000000000000e+00
  -1.768794431736e-01 5.918123565716e-02 0.000000000000e+00
  -1.722691469710e-01 1.722691469710e-01 0.000000000000e+00
  -1.634305879481e-01 2.702399151132e-01 0.000000000000e+00
  -1.510104569210e-01 3.452475097585e-01 0.000000000000e+00
  -1.357335353655e-01 3.923753953627e-01 0.000000000000e+00
  -1.182250796482e-01 4.100264333588e-01 0.000000000000e+00
  -9.891922397837e-02 3.996901320181e-01 0.000000000000e+00
  -7.809609568245e-02 3.651739153724e-01 0.000000000000e+00
  -5.603381666140e-02 3.115635543905e-01 0.000000000000e+00
  -3.320548039269e-02 2.442744960800e-01 0.000000000000e+00
  -1.042160679110e-02 1.684839972728e-01 0.000000000000e+00
  1.116680969765e-02 8.899821762045e-02 0.000000000000e+00
  3.023216486389e-02 1.034497128373e-02 0.000000000000e+00
  4.555226028719e-02 -6.321441558029e-02 0.000000000000e+00
  5.630394528757e-02 -1.279053314237e-01 0.000000000000e+00
  6.225396782964e-02 -1.807672361778e-01 0.000000000000e+00
  6.378014117794e-02 -2.198293506822e-01 0.000000000000e+00
  6.173280460823e-02 -2.440318579433e-01 0.000000000000e+00
  5.720999004132e-02 -2.530946110407e-01 0.000000000000e+00
  5.133726318338e-02 -2.476645876456e-01 0.000000000000e+00
  4.511304105014e-02 -2.298338710462e-01 0.000000000000e+00
  3.932981850114e-02 -2.036686549939e-01 0.000000000000e+00
  3.454670861000e-02 -1.751246944501e-01 0.000000000000e+00
  3.108712814905e-02 -1.509392177890e-01 0.000000000000e+00
  2.905687258409e-02 -1.367080839907e-01 0.000000000000e+00
  2.839410589535e-02 -1.349766999026e-01 0.000000000000e+00
  2.895292819157e-02 -1.443523490701e-01 0.000000000000e+00
  3.059165296811e-02 -1.602084272057e-01 0.000000000000e+00
  3.321491127301e-02 -1.767131178825e-01 0.000000000000e+00
  3.673313496058e-02 -1.891704481883e-01 0.000000000000e+00
  4.095332938124e-02 -1.954881011883e-01 0.000000000000e+00
  4.546795834976e-02 -1.961207076018e-01 0.000000000000e+00
  4.962330503588e-02 -1.927456724920e-01 0.000000000000e+00
  5.261062528186e-02 -1.866165804465e-01 0.000000000000e+00
  5.365773144610e-02 -1.775850764954e-01 0.000000000000e+00
  5.224870656603e-02 -1.642407726047e-01 0.000000000000e+00
  4.829251018458e-02 -1.449289386915e-01 0.000000000000e+00
  4.219117407610e-02 -1.190025686429e-01 0.000000000000e+00
  3.479792441817e-02 -8.767478316840e-02 0.000000000000e+00
  2.728255498239e-02 -5.410360608027e-02 0.000000000000e+00
  2.093231322071e-02 -2.266693971960e-02 0.000000000000e+00
  1.692053101122e-02 2.316875962318e-03 0.000000000000e+00
  1.607933048247e-02 1.793664346416e-02 0.000000000000e+00
  1.871604505115e-02 2.354630950503e-02 0.000000000000e+00
  2.451146933724e-02 2.076546246103e-02 0.000000000000e+00
  3.253007503197e-02 1.266244677931e-02 0.000000000000e+00
  4.135760011266e-02 2.553083357802e-03 0.000000000000e+00
  4.935773297304e-02 -7.030465003227e-03 0.000000000000e+00
  5.500601188275e-02 -1.484731365923e-02 0.000000000000e+00
  5.722399289329e-02 -2.090567544673e-02 0.000000000000e+00
  5.561967366811e-02 -2.604676436560e-02 0.000000000000e+00
  5.055931150126e-02 -3.133430363110e-02 0.000000000000e+00
  4.305050867281e-02 -3.736926485734e-02 0.000000000000e+00
  3.448207327088e-02 -4.368156587263e-02 0.000000000000e+00
  2.630908095217e-02 -4.845592447010e-02 0.000000000000e+00
  1.977289549577e-02 -4.884905650263e-02 0.000000000000e+00
  1.571320015876e-02 -4.192117222671e-02 0.000000000000e+00
  1.448689964836e-02 -2.583645177224e-02 0.000000000000e+00
  1.597877708825e-02 -7.588769439252e-04 0.000000000000e+00
  1.967770223133e-02 3.101745536863e-02 0.000000000000e+00
  2.479433789036e-02 6.577205873490e-02 0.000000000000e+00
  3.040314684501e-02 9.955728350454e-02 0.000000000000e+00
  3.559668468730e-02 1.293651521532e-01 0.000000000000e+00
  3.963903895947e-02 1.537997733995e-01 0.000000000000e+00
  4.209601047138e-02 1.730118766322e-01 0.000000000000e+00
  4.290802247174e-02 1.879351994607e-01 0.000000000000e+00
  4.237206034810e-02 1.991770798931e-01 0.000000000000e+00
  4.102347357049e-02 2.061685253930e-01 0.000000000000e+00
  3.945196586823e-02 2.071758598476e-01 0.000000000000e+00
  3.812242294252e-02 2.003695482590e-01 0.000000000000e+00
  3.727143511828e-02 1.854729240423e-01 0.000000000000e+00
  3.690909512857e-02 1.650082017768e-01 0.000000000000e+00
  3.689988882806e-02 1.442381517999e-01 0.000000000000e+00
  3.706495720816e-02 1.295986365355e-01 0.000000000000e+00
  3.725826130364e-02 1.263005292739e-01 0.000000000000e+00
  3.740370413592e-02 1.362751145804e-01 0.000000000000e+00
  3.750484690473e-02 1.574426955660e-01 0.000000000000e+00
  3.763519353992e-02 1.845521685859e-01 0.000000000000e+00
  3.789815125423e-02 2.110334791385e-01 0.000000000000e+00
  3.834099677425e-02 2.308893378707e-01 0.000000000000e+00
  3.883230270257e-02 2.398233591849e-01 0.000000000000e+00
  3.895307229318e-02 2.353897897533e-01 0.000000000000e+00
  3.797433237731e-02 2.165392846683e-01 0.000000000000e+00
  3.497178000513e-02 1.831458995841e-01 0.000000000000e+00
  2.906466907483e-02 1.358604823047e-01 0.000000000000e+00
  1.969531549272e-02 7.622004654763e-02 0.000000000000e+00
  6.830779707245e-03 6.723278502823e-03 0.000000000000e+00
  -9.005824653346e-03 -6.929899186441e-02 0.000000000000e+00
  -2.689094413553e-02 -1.479186025342e-01 0.000000000000e+00
  -4.577359268579e-02 -2.247277210363e-01 0.000000000000e+00
  -6.474539114659e-02 -2.947610788480e-01 0.000000000000e+00
  -8.319614713397e-02 -3.524037457419e-01 0.000000000000e+00
  -1.008039301631e-01 -3.915918099890e-01 0.000000000000e+00
  -1.173876362430e-01 -4.064948704526e-01 0.000000000000e+00
  -1.327093624747e-01 -3.926002936218e-01 0.000000000000e+00
  -1.463287551629e-01 -3.478865601689e-01 0.000000000000e+00
  -1.575799783670e-01 -2.737021876446e-01 0.000000000000e+00
  -1.656827253813e-01 -1.750604015920e-01 0.000000000000e+00
  -1.699398654072e-01 -6.023964948179e-02 0.000000000000e+00
  0.000000000000e+00 0.000000000000e+00 0.000000000000e+00
  0.000000000000e+00 0.000000000000e+00 0.000000000000e+00
  -2.775032337529e-01 5.614617983773e-02 0.000000000000e+00
  -2.702399151132e-01 1.634305879481e-01 0.000000000000e+00
  -2.563141275928e-01 2.563141275928e-01 0.000000000000e+00
  -2.367446302639e-01 3.271836689229e-01 0.000000000000e+00
  -2.126771219203e-01 3.710948062992e-01 0.000000000000e+00
  -1.851068346829e-01 3.862282794677e-01 0.000000000000e+00
  -1.547346996206e-01 3.738102951770e-01 0.000000000000e+00
  -1.220234201022e-01 3.375193443991e-01 0.000000000000e+00
  -8.743131133009e-02 2.825637375706e-01 0.000000000000e+00
  -5.171412999348e-02 2.147287952945e-01 0.000000000000e+00
  -1.613974632405e-02 1.396714407872e-01 0.000000000000e+00
  1.751473970813e-02 6.256787158507e-02 0.000000000000e+00
  4.722228595141e-02 -1.199758409040e-02 0.000000000000e+00
  7.114138905828e-02 -8.011105873633e-02 0.000000000000e+00
  8.806058850462e-02 -1.386795727144e-01 0.000000000000e+00
  9.767765362604e-02 -1.855600825506e-01 0.000000000000e+00
  1.006169132933e-01 -2.195019373249e-01 0.000000000000e+00
  9.820718483049e-02 -2.399022062680e-01 0.000000000000e+00
  9.213631140289e-02 -2.466305747214e-01 0.000000000000e+00
  8.411939816396e-02 -2.402389838680e-01 0.000000000000e+00
  7.566782716216e-02 -2.225836816888e-01 0.000000000000e+00
  6.796957230758e-02 -1.974373669478e-01 0.000000000000e+00
  6.184177294370e-02 -1.704450732412e-01 0.000000000000e+00
  5.771884548241e-02 -1.480363310757e-01 0.000000000000e+00
  5.567507348230e-02 -1.355369431389e-01 0.000000000000e+00
  5.550547012143e-02 -1.353154707047e-01 0.000000000000e+00
  5.687057334199e-02 -1.459375037848e-01 0.000000000000e+00
  5.945878206683e-02 -1.628502059924e-01 0.000000000000e+00
  6.308028849466e-02 -1.803161038284e-01 0.000000000000e+00
  6.762530890463e-02 -1.936307063397e-01 0.000000000000e+00
  7.289818725931e-02 -2.005209158117e-01 0.000000000000e+00
  7.842730543407e-02 -2.011316401203e-01 0.000000000000e+00
  8.338253831576e-02 -1.968453195383e-01 0.000000000000e+00
  8.667996529779e-02 -1.888016806225e-01 0.000000000000e+00
  8.725199762540e-02 -1.770191148007e-01 0.000000000000e+00
  8.437707683752e-02 -1.605227886124e-01 0.000000000000e+00
  7.794332525574e-02 -1.382569746881e-01 0.000000000000e+00
  6.856139653850e-02 -1.101912677679e-01 0.000000000000e+00
  5.750434774138e-02 -7.803578550665e-02 0.000000000000e+00
  4.650035801406e-02 -4.522324445820e-02 0.000000000000e+00
  3.742728253110e-02 -1.612398392702e-02 0.000000000000e+00
  3.196578366668e-02 5.247201471574e-03 0.000000000000e+00
  3.126999993772e-02 1.654330250318e-02 0.000000000000e+00
  3.571281775724e-02 1.786011842925e-02 0.000000000000e+00
  4.475503611728e-02 1.161401129271e-02 0.000000000000e+00
  5.697466284716e-02 1.575665955737e-03 0.000000000000e+00
  7.027390749573e-02 -8.486905113219e-03 0.000000000000e+00
  8.225150025416e-02 -1.596820174944e-02 0.000000000000e+00
  9.068243500488e-02 -1.998879024184e-02 0.000000000000e+00
  9.399701505720e-02 -2.129675969864e-02 0.000000000000e+00
  9.162516594402e-02 -2.167951167453e-02 0.000000000000e+00
  8.409842920923e-02 -2.311445745832e-02 0.000000000000e+00
  7.288084298520e-02 -2.686272214988e-02 0.000000000000e+00
  5.999483507503e-02 -3.273366555608e-02 0.000000000000e+00
  4.756965163092e-02 -3.880564939799e-02 0.000000000000e+00
  3.744026416375e-02 -4.183375907545e-02 0.000000000000e+00
  3.087622262876e-02 -3.831273321974e-02 0.000000000000e+00
  2.845958676069e-02 -2.580195482003e-02 0.000000000000e+00
  3.009054261315e-02 -3.916207565040e-03 0.000000000000e+00
  3.508660678003e-02 2.547979636064e-02 0.000000000000e+00
  4.234576894900e-02 5.893391965859e-02 0.000000000000e+00
  5.055181005116e-02 9.258057232853e-02 0.000000000000e+00
  5.840309552194e-02 1.232970398743e-01 0.000000000000e+00
  6.484040006666e-02 1.493882267634e-01 0.000000000000e+00
  6.923485930201e-02 1.705719924563e-01 0.000000000000e+00
  7.148348723998e-02 1.873144436576e-01 0.000000000000e+00
  7.196637672900e-02 1.998509083064e-01 0.000000000000e+00
  7.136140154882e-02 2.074482589235e-01 0.000000000000e+00
  7.037750515164e-02 2.084515304090e-01 0.000000000000e+00
  6.951607738289e-02 2.012848483882e-01 0.000000000000e+00
  6.896043923387e-02 1.859642498844e-01 0.000000000000e+00
  6.862309633159e-02 1.652165588258e-01 0.000000000000e+00
  6.829461781847e-02 1.443674795642e-01 0.000000000000e+00
  6.779648084176e-02 1.298023773677e-01 0.000000000000e+00
  6.706661613843e-02 1.266333490495e-01 0.000000000000e+00
  6.616900578934e-02 1.366944623215e-01 0.000000000000e+00
  6.526134203939e-02 1.578298688059e-01 0.000000000000e+00
  6.454803570390e-02 1.847479550462e-01 0.000000000000e+00
  6.421056468307e-02 2.109122059847e-01 0.000000000000e+00
  6.429049575349e-02 2.304878344340e-01 0.000000000000e+00
  6.453016209528e-02 2.394938903514e-01 0.000000000000e+00
  6.423394943362e-02 2.358947016578e-01 0.000000000000e+00
  6.224986685617e-02 2.189971952570e-01 0.000000000000e+00
  5.714519846117e-02 1.887952097625e-01 0.000000000000e+00
  4.756207189626e-02 1.457014096215e-01 0.000000000000e+00
  3.263494006894e-02 9.067560464026e-02 0.000000000000e+00
  1.229620805588e-02 2.547098820873e-02 0.000000000000e+00
  -1.267096979211e-02 -4.724291936175e-02 0.000000000000e+00
  -4.086307252408e-02 -1.238974528227e-01 0.000000000000e+00
  -7.066914153345e-02 -2.000601531882e-01 0.000000000000e+00
  -1.006842459079e-01 -2.704417438609e-01 0.000000000000e+00
  -1.299508833531e-01 -3.290056872964e-01 0.000000000000e+00
  -1.579467328383e-01 -3.693862359202e-01 0.000000000000e+00
  -1.843596894523e-01 -3.857037818275e-01 0.000000000000e+00
  -2.087845234724e-01 -3.736448219952e-01 0.000000000000e+00
  -2.304997836850e-01 -3.315073788948e-01 0.000000000000e+00
  -2.484350937201e-01 -2.608948356796e-01 0.000000000000e+00
  -2.613468688683e-01 -1.668532313946e-01 0.000000000000e+00
  -2.681286980411e-01 -5.740785048044e-02 0.000000000000e+00
  0.000000000000e+00 0.000000000000e+00 0.000000000000e+00
  0.000000000000e+00 0.000000000000e+00 0.000000000000e+00
  -3.546689802142e-01 5.188152176949e-02 0.000000000000e+00
  -3.452475097585e-01 1.510104569210e-01 0.000000000000e+00
  -3.271836689229e-01 2.367446302639e-01 0.000000000000e+00
  -3.018034613068e-01 3.018034613068e-01 0.000000000000e+00
  -2.706097483884e-01 3.412137926532e-01 0.000000000000e+00
  -2.349277668650e-01 3.528570243529e-01 0.000000000000e+00
  -1.957179283876e-01 3.375995767522e-01 0.000000000000e+00
  -1.536397486249e-01 2.989406035428e-01 0.000000000000e+00
  -1.093383259938e-01 2.422489470236e-01 0.000000000000e+00
  -6.381369783860e-02 1.738017763498e-01 0.000000000000e+00
  -1.867744221906e-02 9.988782044301e-02 0.000000000000e+00
  2.386432948853e-02 2.615523418953e-02 0.000000000000e+00
  6.134322385217e-02 -4.277138730178e-02 0.000000000000e+00
  9.156748221704e-02 -1.034806169967e-01 0.000000000000e+00
  1.131552974604e-01 -1.538170291437e-01 0.000000000000e+00
  1.258508495853e-01 -1.927352433677e-01 0.000000000000e+00
  1.305161963809e-01 -2.199313829706e-01 0.000000000000e+00
  1.288402105052e-01 -2.353870462837e-01 0.000000000000e+00
  1.229132951546e-01 -2.391479459274e-01 0.000000000000e+00
  1.148311909055e-01 -2.316225951740e-01 0.000000000000e+00
  1.064226927018e-01 -2.143400011773e-01 0.000000000000e+00
  9.910375429805e-02 -1.906638542010e-01 0.000000000000e+00
  9.380800291442e-02 -1.657950352405e-01 0.000000000000e+00