# vtk DataFile Version 3.0
Karman Output
ASCII
DATASET RECTILINEAR_GRID
DIMENSIONS 101 101 1
X_COORDINATES 101 float
   0.000000000000e+00   9.900990099010e-03   1.980198019802e-02   2.970297029703e-02   3.960396039604e-02   4.950495049505e-02   5.940594059406e-02   6.930693069307e-02   7.920792079208e-02   8.910891089109e-02   9.900990099010e-02   1.089108910891e-01   1.188118811881e-01   1.287128712871e-01   1.386138613861e-01   1.485148514851e-01   1.584158415842e-01   1.683168316832e-01   1.782178217822e-01   1.881188118812e-01   1.980198019802e-01   2.079207920792e-01   2.178217821782e-01   2.277227722772e-01   2.376237623762e-01   2.475247524752e-01   2.574257425743e-01   2.673267326733e-01   2.772277227723e-01   2.871287128713e-01   2.970297029703e-01   3.069306930693e-01   3.168316831683e-01   3.267326732673e-01   3.366336633663e-01   3.465346534653e-01   3.564356435644e-01   3.663366336634e-01   3.762376237624e-01   3.861386138614e-01   3.960396039604e-01   4.059405940594e-01   4.158415841584e-01   4.257425742574e-01   4.356435643564e-01   4.455445544554e-01   4.554455445545e-01   4.653465346535e-01   4.752475247525e-01   4.851485148515e-01   4.950495049505e-01   5.049504950495e-01   5.148514851485e-01   5.247524752475e-01   5.346534653465e-01   5.445544554455e-01   5.544554455446e-01   5.643564356436e-01   5.742574257426e-01   5.841584158416e-01   5.940594059406e-01   6.039603960396e-01   6.138613861386e-01   6.237623762376e-01   6.336633663366e-01   6.435643564356e-01   6.534653465347e-01   6.633663366337e-01   6.732673267327e-01   6.831683168317e-01   6.930693069307e-01   7.029702970297e-01   7.128712871287e-01   7.227722772277e-01   7.326732673267e-01   7.425742574257e-01   7.524752475248e-01   7.623762376238e-01   7.722772277228e-01   7.821782178218e-01   7.920792079208e-01   8.019801980198e-01   8.118811881188e-01   8.217821782178e-01   8.316831683168e-01   8.415841584158e-01   8.514851485149e-01   8.613861386139e-01   8.712871287129e-01   8.811881188119e-01   8.910891089109e-01   9.009900990099e-01   9.108910891089e-01   9.207920792079e-01   9.306930693069e-01   9.405940594059e-01   9.504950495050e-01   9.603960396040e-01   9.702970297030e-01   9.801980198020e-01   9.900990099010e-01
Y_COORDINATES 101 float
   0.000000000000e+00   9.900990099010e-03   1.980198019802e-02   2.970297029703e-02   3.960396039604e-02   4.950495049505e-02   5.940594059406e-02   6.930693069307e-02   7.920792079208e-02   8.910891089109e-02   9.900990099010e-02   1.089108910891e-01   1.188118811881e-01   1.287128712871e-01   1.386138613861e-01   1.485148514851e-01   1.584158415842e-01   1.683168316832e-01   1.782178217822e-01   1.881188118812e-01   1.980198019802e-01   2.079207920792e-01   2.178217821782e-01   2.277227722772e-01   2.376237623762e-01   2.475247524752e-01   2.574257425743e-01   2.673267326733e-01   2.772277227723e-01   2.871287128713e-01   2.970297029703e-01   3.069306930693e-01   3.168316831683e-01   3.267326732673e-01   3.366336633663e-01   3.465346534653e-01   3.564356435644e-01   3.663366336634e-01   3.762376237624e-01   3.861386138614e-01   3.960396039604e-01   4.059405940594e-01   4.158415841584e-01   4.257425742574e-01   4.356435643564e-01   4.455445544554e-01   4.554455445545e-01   4.653465346535e-01   4.752475247525e-01   4.851485148515e-01   4.950495049505e-01   5.049504950495e-01   5.148514851485e-01   5.247524752475e-01   5.346534653465e-01   5.445544554455e-01   5.544554455446e-01   5.643564356436e-01   5.742574257426e-01   5.841584158416e-01   5.940594059406e-01   6.039603960396e-01   6.138613861386e-01   6.237623762376e-01   6.336633663366e-01   6.435643564356e-01   6.534653465347e-01   6.633663366337e-01   6.732673267327e-01   6.831683168317e-01   6.930693069307e-01   7.029702970297e-01   7.128712871287e-01   7.227722772277e-01   7.326732673267e-01   7.425742574257e-01   7.524752475248e-01   7.623762376238e-01   7.722772277228e-01   7.821782178218e-01   7.920792079208e-01   8.019801980198e-01   8.118811881188e-01   8.217821782178e-01   8.316831683168e-01   8.415841584158e-01   8.514851485149e-01   8.613861386139e-01   8.712871287129e-01   8.811881188119e-01   8.910891089109e-01   9.009900990099e-01   9.108910891089e-01   9.207920792079e-01   9.306930693069e-01   9.405940594059e-01   9.504950495050e-01   9.603960396040e-01   9.702970297030e-01   9.801980198020e-01   9.900990099010e-01
Z_COORDINATES 1 float
  0.000000000000e+00
POINT_DATA 10201
VECTORS E_field float
  0.000000000000e+00 0.000000000000e+00 0.000000000000e+00
  0.000000000000e+00 0.000000000000e+00 0.000000000000e+00
  0.000000000000e+00 0.000000000000e+00 0.000000000000e+00
  0.000000000000e+00 0.000000000000e+00 0.000000000000e+00
  0.000000000000e+00 0.000000000000e+00 0.000000000000e+00
  0.000000000000e+00 0.000000000000e+00 0.000000000000e+00
  0.000000000000e+00 0.000000000000e+00 0.000000000000e+00
  0.000000000000e+00 0.000000000000e+00 0.000000000000e+00
  0.000000000000e+00 0.000000000000e+00 0.000000000000e+00
  0.000000000000e+00 0.000000000000e+00 0.000000000000e+00
  0.000000000000e+00 0.000000000000e+00 0.000000000000e+00
  0.000000000000e+00 0.000000000000e+00 0.000000000000e+00
  0.000000000000e+00 0.000000000000e+00 0.000000000000e+00
  0.000000000000e+00 0.000000000000e+00 0.000000000000e+00
  0.000000000000e+00 0.000000000000e+00 0.000000000000e+00
  0.000000000000e+00 0.000000000000e+00 0.000000000000e+00
  0.000000000000e+00 0.000000000000e+00 0.000000000000e+00
  0.000000000000e+00 0.000000000000e+00 0.000000000000e+00
  0.000000000000e+00 0.000000000000e+00 0.000000000000e+00
  0.000000000000e+00 0.000000000000e+00 0.000000000000e+00
  0.000000000000e+00 0.000000000000e+00 0.000000000000e+00
  0.000000000000e+00 0.000000000000e+00 0.000000000000e+00
  0.000000000000e+00 0.000000000000e+00 0.000000000000e+00
  0.000000000000e+00 0.000000000000e+00 0.000000000000e+00
  0.000000000000e+00 0.000000000000e+00 0.000000000000e+00
  0.000000000000e+00 0.000000000000e+00 0.000000000000e+00
  0.000000000000e+00 0.000000000000e+00 0.000000000000e+00
  0.000000000000e+00 0.000000000000e+00 0.000000000000e+00
  0.000000000000e+00 0.000000000000e+00 0.000000000000e+00
  0.000000000000e+00 0.000000000000e+00 0.000000000000e+00
  0.000000000000e+00 0.000000000000e+00 0.000000000000e+00
  0.000000000000e+00 0.000000000000e+00 0.000000000000e+00
  0.000000000000e+00 0.000000000000e+00 0.000000000000e+00
  0.000000000000e+00 0.000000000000e+00 0.000000000000e+00
  0.000000000000e+00 0.000000000000e+00 0.000000000000e+00
  0.000000000000e+00 0.000000000000e+00 0.000000000000e+00
  0.000000000000e+00 0.000000000000e+00 0.000000000000e+00
  0.000000000000e+00 0.000000000000e+00 0.000000000000e+00
  0.000000000000e+00 0.000000000000e+00 0.000000000000e+00
  0.000000000000e+00 0.000000000000e+00 0.000000000000e+00
  0.000000000000e+00 0.000000000000e+00 0.000000000000e+00
  0.000000000000e+00 0.000000000000e+00 0.000000000000e+00
  0.000000000000e+00 0.000000000000e+00 0.000000000000e+00
  0.000000000000e+00 0.000000000000e+00 0.000000000000e+00
  0.000000000000e+00 0.000000000000e+00 0.000000000000e+00
  0.000000000000e+00 0.000000000000e+00 0.000000000000e+00
  0.000000000000e+00 0.000000000000e+00 0.000000000000e+00
  0.000000000000e+00 0.000000000000e+00 0.000000000000e+00
  0.000000000000e+00 0.000000000000e+00 0.000000000000e+00
  0.000000000000e+00 0.000000000000e+00 0.000000000000e+00
  0.000000000000e+00 0.000000000000e+00 0.000000000000e+00
  0.000000000000e+00 0.000000000000e+00 0.000000000000e+00
  0.000000000000e+00 0.000000000000e+00 0.000000000000e+00
  0.000000000000e+00 0.000000000000e+00 0.000000000000e+00
  0.000000000000e+00 0.000000000000e+00 0.000000000000e+00
  0.000000000000e+00 0.000000000000e+00 0.000000000000e+00
  0.000000000000e+00 0.000000000000e+00 0.000000000000e+00
  0.000000000000e+00 0.000000000000e+00 0.000000000000e+00
  0.000000000000e+00 0.000000000000e+00 0.000000000000e+00
  0.000000000000e+00 0.000000000000e+00 0.000000000000e+00
  0.000000000000e+00 0.000000000000e+00 0.000000000000e+00
  0.000000000000e+00 0.000000000000e+00 0.000000000000e+00
  0.000000000000e+00 0.000000000000e+00 0.000000000000e+00
  0.000000000000e+00 0.000000000000e+00 0.000000000000e+00
  0.000000000000e+00 0.000000000000e+00 0.000000000000e+00
  0.000000000000e+00 0.000000000000e+00 0.000000000000e+00
  0.000000000000e+00 0.000000000000e+00 0.000000000000e+00
  0.000000000000e+00 0.000000000000e+00 0.000000000000e+00
  0.000000000000e+00 0.000000000000e+00 0.000000000000e+00
  0.000000000000e+00 0.000000000000e+00 0.000000000000e+00
  0.000000000000e+00 0.000000000000e+00 0.000000000000e+00
  0.000000000000e+00 0.000000000000e+00 0.000000000000e+00
  0.000000000000e+00 0.000000000000e+00 0.000000000000e+00
  0.000000000000e+00 0.000000000000e+00 0.000000000000e+00
  0.000000000000e+00 0.000000000000e+00 0.000000000000e+00
  0.000000000000e+00 0.000000000000e+00 0.000000000000e+00
  0.000000000000e+00 0.000000000000e+00 0.000000000000e+00
  0.000000000000e+00 0.000000000000e+00 0.000000000000e+00
  0.000000000000e+00 0.000000000000e+00 0.000000000000e+00
  0.000000000000e+00 0.000000000000e+00 0.000000000000e+00
  0.000000000000e+00 0.000000000000e+00 0.000000000000e+00
  0.000000000000e+00 0.000000000000e+00 0.000000000000e+00
  0.000000000000e+00 0.000000000000e+00 0.000000000000e+00
  0.000000000000e+00 0.000000000000e+00 0.000000000000e+00
  0.000000000000e+00 0.000000000000e+00 0.000000000000e+00
  0.000000000000e+00 0.000000000000e+00 0.000000000000e+00
  0.000000000000e+00 0.000000000000e+00 0.000000000000e+00
  0.000000000000e+00 0.000000000000e+00 0.000000000000e+00
  0.000000000000e+00 0.000000000000e+00 0.000000000000e+00
  0.000000000000e+00 0.000000000000e+00 0.000000000000e+00
  0.000000000000e+00 0.000000000000e+00 0.000000000000e+00
  0.000000000000e+00 0.000000000000e+00 0.000000000000e+00
  0.000000000000e+00 0.000000000000e+00 0.000000000000e+00
  0.000000000000e+00 0.000000000000e+00 0.000000000000e+00
  0.000000000000e+00 0.000000000000e+00 0.000000000000e+00
  0.000000000000e+00 0.000000000000e+00 0.000000000000e+00
  0.000000000000e+00 0.000000000000e+00 0.000000000000e+00
  0.000000000000e+00 0.000000000000e+00 0.000000000000e+00
  0.000000000000e+00 0.000000000000e+00 0.000000000000e+00
  0.000000000000e+00 0.000000000000e+00 0.000000000000e+00
  0.000000000000e+00 0.000000000000e+00 0.000000000000e+00
  0.000000000000e+00 0.000000000000e+00 0.000000000000e+00
  2.056735724875e-22 -2.056735724875e-22 0.000000000000e+00
  1.245815418995e-21 -1.630701739930e-21 0.000000000000e+00
  8.083815610675e-21 -1.059850114659e-20 0.000000000000e+00
  4.979086378388e-20 -6.502436758492e-20 0.000000000000e+00
  2.905073143964e-19 -3.776646287293e-19 0.000000000000e+00
  1.606190053125e-18 -2.077398920187e-18 0.000000000000e+00
  8.418894710411e-18 -1.082651998802e-17 0.000000000000e+00
  4.185293888604e-17 -5.348013893736e-17 0.000000000000e+00
  1.974298485550e-16 -2.505060974928e-16 0.000000000000e+00
  8.841545484208e-16 -1.113172251041e-15 0.000000000000e+00
  3.760923080161e-15 -4.694940373866e-15 0.000000000000e+00
  1.520352508365e-14 -1.880340009492e-14 0.000000000000e+00
  5.844147497791e-14 -7.154944189768e-14 0.000000000000e+00
  2.137369939966e-13 -2.588063699452e-13 0.000000000000e+00
  7.441937778146e-13 -8.904066318418e-13 0.000000000000e+00
  2.468414833236e-12 -2.915433395171e-12 0.000000000000e+00
  7.804876316743e-12 -9.090474572054e-12 0.000000000000e+00
  2.354137353762e-11 -2.700951387952e-11 0.000000000000e+00
  6.778440031458e-11 -7.652129843779e-11 0.000000000000e+00
  1.864602503449e-10 -2.068625759156e-10 0.000000000000e+00
  4.903876498962e-10 -5.339785402496e-10 0.000000000000e+00
  1.234068483319e-09 -1.317119000583e-09 0.000000000000e+00
  2.974035963785e-09 -3.106779844550e-09 0.000000000000e+00
  6.869601180752e-09 -7.013128361235e-09 0.000000000000e+00
  1.522214783095e-08 -1.516232404171e-08 0.000000000000e+00
  3.238686237694e-08 -3.142047933402e-08 0.000000000000e+00
  6.622277336677e-08 -6.245896608300e-08 0.000000000000e+00
  1.302551104746e-07 -1.191935756460e-07 0.000000000000e+00
  2.466831168834e-07 -2.185368232775e-07 0.000000000000e+00
  4.502493479702e-07 -3.852487156759e-07 0.000000000000e+00
  7.927738082985e-07 -6.534667513816e-07 0.000000000000e+00
  1.347849904676e-06 -1.067279418536e-06 0.000000000000e+00
  2.214835062547e-06 -1.679548580323e-06 0.000000000000e+00
  3.520923056565e-06 -2.548175413419e-06 0.000000000000e+00
  5.419867237736e-06 -3.729228713274e-06 0.000000000000e+00
  8.085954639084e-06 -5.266860977459e-06 0.000000000000e+00
  1.170220697573e-05 -7.180700002643e-06 0.000000000000e+00
  1.644253902249e-05 -9.452300661162e-06 0.000000000000e+00
  2.244867775368e-05 -1.201306565532e-05 0.000000000000e+00
  2.980387609263e-05 -1.473654314498e-05 0.000000000000e+00
  3.850660299179e-05 -1.743795392971e-05 0.000000000000e+00
  4.844818616770e-05 -1.988306064392e-05 0.000000000000e+00
  5.939858832264e-05 -2.180709308599e-05 0.000000000000e+00
  7.100397169652e-05 -2.294259241644e-05 0.000000000000e+00
  8.279844843902e-05 -2.305308686240e-05 0.000000000000e+00
  9.423057572099e-05 -2.196789203998e-05 0.000000000000e+00
  1.047030126319e-04 -1.961244282051e-05 0.000000000000e+00
  1.136216646024e-04 -1.602868521512e-05 0.000000000000e+00
  1.204489626247e-04 -1.138125690565e-05 0.000000000000e+00
  1.247549615843e-04 -5.947302452800e-06 0.000000000000e+00
  1.262598827178e-04 -9.043556640864e-08 0.000000000000e+00
  1.248626105114e-04 5.777925692367e-06 0.000000000000e+00
  1.206513713365e-04 1.124439492082e-05 0.000000000000e+00
  1.138951214774e-04 1.593986905460e-05 0.000000000000e+00
  1.050167115941e-04 1.957933772644e-05 0.000000000000e+00
  9.455128672254e-05 2.198951542216e-05 0.000000000000e+00
  8.309525842067e-05 2.312069143116e-05 0.000000000000e+00
  7.125226059981e-05 2.304190776405e-05 0.000000000000e+00
  5.958261390285e-05 2.192134044013e-05 0.000000000000e+00
  4.856197574853e-05 1.999604072074e-05 0.000000000000e+00
  3.855320826558e-05 1.753657250204e-05 0.000000000000e+00
  2.979335473537e-05 1.481234845416e-05 0.000000000000e+00
  2.239535851632e-05 1.206265523606e-05 0.000000000000e+00
  1.636217511264e-05 9.476729492500e-06 0.000000000000e+00
  1.160953505508e-05 7.184217608514e-06 0.000000000000e+00
  7.992995069639e-06 5.255384832717e-06 0.000000000000e+00
  5.335083923415e-06 3.708926246733e-06 0.000000000000e+00
  3.449165860680e-06 2.524410067327e-06 0.000000000000e+00
  2.157855340096e-06 1.656295945307e-06 0.000000000000e+00
  1.305126513068e-06 1.046984648846e-06 0.000000000000e+00
  7.624053169340e-07 6.372257395688e-07 0.000000000000e+00
  4.297338781230e-07 3.731628566541e-07 0.000000000000e+00
  2.334905425418e-07 2.101057943247e-07 0.000000000000e+00
  1.221717537505e-07 1.136528554774e-07 0.000000000000e+00
  6.150094429415e-08 5.901785628693e-08 0.000000000000e+00
  2.975660276526e-08 2.939671062404e-08 0.000000000000e+00
  1.382488686768e-08 1.403376576895e-08 0.000000000000e+00
  6.161818536262e-09 6.415891062622e-09 0.000000000000e+00
  2.632238515228e-09 2.806697114843e-09 0.000000000000e+00
  1.076760553818e-09 1.173929186643e-09 0.000000000000e+00
  4.214137338192e-10 4.690867442960e-10 0.000000000000e+00
  1.576602844871e-10 1.789340736817e-10 0.000000000000e+00
  5.633773876073e-11 6.510781167582e-11 0.000000000000e+00
  1.921281162754e-11 2.258154480121e-11 0.000000000000e+00
  6.248268305518e-12 7.460099928450e-12 0.000000000000e+00
  1.936335674493e-12 2.345882479938e-12 0.000000000000e+00
  5.714012476874e-13 7.016964818075e-13 0.000000000000e+00
  1.604504706891e-13 1.995241994101e-13 0.000000000000e+00
  4.284420923287e-14 5.389866320181e-14 0.000000000000e+00
  1.087223550814e-14 1.382421926679e-14 0.000000000000e+00
  2.620338580106e-15 3.364639833361e-15 0.000000000000e+00
  5.994538970125e-16 7.766725620004e-16 0.000000000000e+00
  1.300988149521e-16 1.699477768328e-16 0.000000000000e+00
  2.677197578059e-17 3.523369906101e-17 0.000000000000e+00
  5.221051371834e-18 6.917724597465e-18 0.000000000000e+00
  9.644897271213e-19 1.285690820112e-18 0.000000000000e+00
  1.687053023887e-19 2.260811787175e-19 0.000000000000e+00
  2.801410209767e-20 3.748314509805e-20 0.000000000000e+00
  5.019888904375e-21 5.034942423992e-21 0.000000000000e+00
  0.000000000000e+00 0.000000000000e+00 0.000000000000e+00
  0.000000000000e+00 0.000000000000e+00 0.000000000000e+00
  1.630701739930e-21 -1.245815418995e-21 0.000000000000e+00
  9.665975575153e-21 -9.665975575153e-21 0.000000000000e+00
  6.150382362301e-20 -6.123907555090e-20 0.000000000000e+00
  3.715334599920e-19 -3.661204777227e-19 0.000000000000e+00
  2.126080583929e-18 -2.071832093141e-18 0.000000000000e+00
  1.152944460509e-17 -1.110227821566e-17 0.000000000000e+00
  5.927540507163e-17 -5.636030581635e-17 0.000000000000e+00
  2.890531023647e-16 -2.711580945776e-16 0.000000000000e+00
  1.337599811291e-15 -1.236951760446e-15 0.000000000000e+00
  5.876764278515e-15 -5.352615755160e-15 0.000000000000e+00
  2.452686146614e-14 -2.198236258898e-14 0.000000000000e+00
  9.729175186219e-14 -8.572347027843e-14 0.000000000000e+00
  3.670203583389e-13 -3.175959280792e-13 0.000000000000e+00
  1.317484708424e-12 -1.118519752831e-12 0.000000000000e+00
  4.503138926524e-12 -3.746804250665e-12 0.000000000000e+00
  1.466508551801e-11 -1.194520342212e-11 0.000000000000e+00
  4.553557636810e-11 -3.626765687300e-11 0.000000000000e+00
  1.349037453979e-10 -1.049369978022e-10 0.000000000000e+00
  3.816159573655e-10 -2.895490531389e-10 0.000000000000e+00
  1.031556894006e-09 -7.624516073771e-10 0.000000000000e+00
  2.666680101669e-09 -1.917440113987e-09 0.000000000000e+00
  6.598093206795e-09 -4.608751357846e-09 0.000000000000e+00
  1.563888380454e-08 -1.059590553878e-08 0.000000000000e+00
  3.553967420682e-08 -2.332035819686e-08 0.000000000000e+00
  7.750539122504e-08 -4.917335759138e-08 0.000000000000e+00
  1.623530244774e-07 -9.942179273340e-08 0.000000000000e+00
  3.269683830075e-07 -1.929089197887e-07 0.000000000000e+00
  6.336965462415e-07 -3.595041157686e-07 0.000000000000e+00
  1.183056196933e-06 -6.440139235770e-07 0.000000000000e+00
  2.129607041061e-06 -1.109888650026e-06 0.000000000000e+00
  3.699873588202e-06 -1.841617730718e-06 0.000000000000e+00
  6.209986402136e-06 -2.944317143300e-06 0.000000000000e+00
  1.007932937750e-05 -4.538838557319e-06 0.000000000000e+00
  1.583530791061e-05 -6.750951103999e-06 0.000000000000e+00
  2.410380477548e-05 -9.693892437853e-06 0.000000000000e+00
  3.558039126298e-05 -1.344486819345e-05 0.000000000000e+00
  5.097919343449e-05 -1.801774221554e-05 0.000000000000e+00
  7.095948687996e-05 -2.333587560057e-05 0.000000000000e+00
  9.603426485946e-05 -2.921039437607e-05 0.000000000000e+00
  1.264695093421e-04 -3.532963778845e-05 0.000000000000e+00
  1.621867810570e-04 -4.126483027562e-05 0.000000000000e+00
  2.026840925633e-04 -4.649504166560e-05 0.000000000000e+00
  2.469900952802e-04 -5.045146904903e-05 0.000000000000e+00
  2.936640495783e-04 -5.257749586391e-05 0.000000000000e+00
  3.408490128160e-04 -5.239755641516e-05 0.000000000000e+00
  3.863788290406e-04 -4.958529360321e-05 0.000000000000e+00
  4.279318742172e-04 -4.402045040593e-05 0.000000000000e+00
  4.632173282167e-04 -3.582471608602e-05 0.000000000000e+00
  4.901741969173e-04 -2.536933699330e-05 0.000000000000e+00
  5.071603352982e-04 -1.325132141107e-05 0.000000000000e+00
  5.131088654859e-04 -2.398512672141e-07 0.000000000000e+00
  5.076327031323e-04 1.280076911509e-05 0.000000000000e+00
  4.910639816437e-04 2.500148259035e-05 0.000000000000e+00
  4.644231646469e-04 3.557979919952e-05 0.000000000000e+00
  4.293214402743e-04 4.391947849819e-05 0.000000000000e+00
  3.878083428007e-04 4.962782555226e-05 0.000000000000e+00
  3.421832420555e-04 5.256343703443e-05 0.000000000000e+00
  2.947934006602e-04 5.283193160206e-05 0.000000000000e+00
  2.478421312471e-04 5.075217047398e-05 0.000000000000e+00
  2.032280951089e-04 4.679983262188e-05 0.000000000000e+00
  1.624314097526e-04 4.153819173611e-05 0.000000000000e+00
  1.264548952293e-04 3.554706574016e-05 0.000000000000e+00
  9.582073685918e-05 2.936006986686e-05 0.000000000000e+00
  7.061542512465e-05 2.341779448207e-05 0.000000000000e+00
  5.057024054227e-05 1.804096714127e-05 0.000000000000e+00
  3.516157148273e-05 1.342383805845e-05 0.000000000000e+00
  2.371522455064e-05 9.644727376273e-06 0.000000000000e+00
  1.550127510553e-05 6.688474344066e-06 0.000000000000e+00
  9.810115786657e-06 4.474700377470e-06 0.000000000000e+00
  6.005160661272e-06 2.886263589617e-06 0.000000000000e+00
  3.552141426873e-06 1.793686946426e-06 0.000000000000e+00
  2.028329225355e-06 1.073185158624e-06 0.000000000000e+00
  1.116952762291e-06 6.177032328263e-07 0.000000000000e+00
  5.925771623525e-07 3.417497812264e-07 0.000000000000e+00
  3.025771621681e-07 1.815917303852e-07 0.000000000000e+00
  1.485522975748e-07 9.259203892497e-08 0.000000000000e+00
  7.005682871250e-08 4.526562088385e-08 0.000000000000e+00
  3.170529220131e-08 2.119864032980e-08 0.000000000000e+00
  1.375666762415e-08 9.502152296188e-09 0.000000000000e+00
  5.717336657222e-09 4.073282887517e-09 0.000000000000e+00
  2.273955524149e-09 1.668460983034e-09 0.000000000000e+00
  8.647630438085e-10 6.525057608972e-10 0.000000000000e+00
  3.141737013686e-10 2.434480116540e-10 0.000000000000e+00
  1.089538426335e-10 8.658613045078e-11 0.000000000000e+00
  3.603877619273e-11 2.933512398547e-11 0.000000000000e+00
  1.136107915575e-11 9.460488078524e-12 0.000000000000e+00
  3.410917710196e-12 2.902186752999e-12 0.000000000000e+00
  9.745807409529e-13 8.463216739530e-13 0.000000000000e+00
  2.648286047954e-13 2.344595861787e-13 0.000000000000e+00
  6.839598394779e-14 6.166789084579e-14 0.000000000000e+00
  1.677820466278e-14 1.539064446471e-14 0.000000000000e+00
  3.907078815663e-15 3.642678460436e-15 0.000000000000e+00
  8.631872344063e-16 8.171885416536e-16 0.000000000000e+00
  1.808296648059e-16 1.736773430039e-16 0.000000000000e+00
  3.590233908847e-17 3.495233077965e-17 0.000000000000e+00
  6.752301916316e-18 6.657683454664e-18 0.000000000000e+00
  1.202500382583e-18 1.199674502616e-18 0.000000000000e+00
  2.033359397576e-19 2.037454643143e-19 0.000000000000e+00
  3.717737428628e-20 2.792540187224e-20 0.000000000000e+00
  0.000000000000e+00 0.000000000000e+00 0.000000000000e+00
  0.000000000000e+00 0.000000000000e+00 0.000000000000e+00
  1.059850114659e-20 -8.083815610675e-21 0.000000000000e+00
  6.123907555090e-20 -6.150382362301e-20 0.000000000000e+00
  3.807309864547e-19 -3.807309864547e-19 0.000000000000e+00
  2.247430967646e-18 -2.223358184379e-18 0.000000000000e+00
  1.256629348641e-17 -1.228800402919e-17 0.000000000000e+00
  6.657992228110e-17 -6.430309909544e-17 0.000000000000e+00
  3.344180592585e-16 -3.187435823803e-16 0.000000000000e+00
  1.593128902918e-15 -1.497263358965e-15 0.000000000000e+00
  7.201793435422e-15 -6.668057737470e-15 0.000000000000e+00
  3.090883953237e-14 -2.816772034216e-14 0.000000000000e+00
  1.260118221813e-13 -1.129203378374e-13 0.000000000000e+00
  4.882831507435e-13 -4.298217139804e-13 0.000000000000e+00
  1.799371702052e-12 -1.554314842112e-12 0.000000000000e+00
  6.309974156613e-12 -5.342867643133e-12 0.000000000000e+00
  2.107041362514e-11 -1.746855004522e-11 0.000000000000e+00
  6.704266811355e-11 -5.435765869807e-11 0.000000000000e+00
  2.034085448439e-10 -1.610915691306e-10 0.000000000000e+00
  5.889071271313e-10 -4.549798366419e-10 0.000000000000e+00
  1.628235921885e-09 -1.225547220050e-09 0.000000000000e+00
  4.302560779131e-09 -3.150719230321e-09 0.000000000000e+00
  1.087514262494e-08 -7.736877528732e-09 0.000000000000e+00
  2.631556889066e-08 -1.816115325561e-08 0.000000000000e+00
  6.101603394347e-08 -4.078475908791e-08 0.000000000000e+00
  1.356823757837e-07 -8.769863621794e-08 0.000000000000e+00
  2.896385984036e-07 -1.807170171081e-07 0.000000000000e+00
  5.940974236231e-07 -3.571845854738e-07 0.000000000000e+00
  1.172060596157e-06 -6.777246406802e-07 0.000000000000e+00
  2.226196157483e-06 -1.235552073051e-06 0.000000000000e+00
  4.075049703343e-06 -2.166179045652e-06 0.000000000000e+00
  7.196102370227e-06 -3.655326757654e-06 0.000000000000e+00
  1.227149204948e-05 -5.941835207486e-06 0.000000000000e+00
  2.022896178094e-05 -9.311680818043e-06 0.000000000000e+00
  3.226743217347e-05 -1.407928536964e-05 0.000000000000e+00
  4.985444388501e-05 -2.055348886559e-05 0.000000000000e+00
  7.468261259763e-05 -2.898800961755e-05 0.000000000000e+00
  1.085750189688e-04 -3.951972485628e-05 0.000000000000e+00
  1.533354401217e-04 -5.210207646069e-05 0.000000000000e+00
  2.105480827270e-04 -6.644442471069e-05 0.000000000000e+00
  2.813417551635e-04 -8.197021399696e-05 0.000000000000e+00
  3.661433384149e-04 -9.780652518321e-05 0.000000000000e+00
  4.644528531667e-04 -1.128145593458e-04 0.000000000000e+00
  5.746754876758e-04 -1.256650306758e-04 0.000000000000e+00
  6.940434683673e-04 -1.349551728753e-04 0.000000000000e+00
  8.186524582826e-04 -1.393563847975e-04 0.000000000000e+00
  9.436241786131e-04 -1.377749490257e-04 0.000000000000e+00
  1.063390999840e-03 -1.295041057216e-04 0.000000000000e+00
  1.172081731349e-03 -1.143449803144e-04 0.000000000000e+00
  1.263973253898e-03 -9.267676115187e-05 0.000000000000e+00
  1.333962176889e-03 -6.546275201607e-05 0.000000000000e+00
  1.378005910904e-03 -3.418755044662e-05 0.000000000000e+00
  1.393484146047e-03 -7.302867615858e-07 0.000000000000e+00
  1.379439563626e-03 3.281191159733e-05 0.000000000000e+00
  1.336669720886e-03 6.432873210029e-05 0.000000000000e+00
  1.267658816765e-03 9.190398271262e-05 0.000000000000e+00
  1.176356395089e-03 1.139990668652e-04 0.000000000000e+00
  1.067827671236e-03 1.295896342358e-04 0.000000000000e+00
  9.478148149066e-04 1.382391475886e-04 0.000000000000e+00
  8.222582308980e-04 1.401022271683e-04 0.000000000000e+00
  6.968302829632e-04 1.358607157017e-04 0.000000000000e+00
  5.765304617182e-04 1.266048256217e-04 0.000000000000e+00
  4.653811508355e-04 1.136789386740e-04 0.000000000000e+00
  3.662483447219e-04 9.851544392231e-05 0.000000000000e+00
  2.807942021579e-04 8.247985070264e-05 0.000000000000e+00
  2.095509539631e-04 6.674647545433e-05 0.000000000000e+00
  1.520911734133e-04 5.221718663649e-05 0.000000000000e+00
  1.072599629442e-04 3.948745745664e-05 0.000000000000e+00
  7.343139536898e-05 2.885599813352e-05 0.000000000000e+00
  4.875451012353e-05 2.036802436064e-05 0.000000000000e+00
  3.136205294841e-05 1.387875927173e-05 0.000000000000e+00
  1.952586709695e-05 9.123341733527e-06 0.000000000000e+00
  1.175400180266e-05 5.781491381884e-06 0.000000000000e+00
  6.834083576302e-06 3.529110232140e-06 0.000000000000e+00
  3.833907819379e-06 2.073329966918e-06 0.000000000000e+00
  2.073088541587e-06 1.171317748772e-06 0.000000000000e+00
  1.079341569318e-06 6.357706637841e-07 0.000000000000e+00
  5.405287114985e-07 3.312508003383e-07 0.000000000000e+00
  2.601099098978e-07 1.655211198149e-07 0.000000000000e+00
  1.201544203178e-07 7.925016396844e-08 0.000000000000e+00
  5.322824159914e-08 3.632543079071e-08 0.000000000000e+00
  2.259166828456e-08 1.592590831057e-08 0.000000000000e+00
  9.178107455920e-09 6.672777413763e-09 0.000000000000e+00
  3.565848239087e-09 2.669640997035e-09 0.000000000000e+00
  1.323718951832e-09 1.019031397158e-09 0.000000000000e+00
  4.691188862304e-10 3.708226672602e-10 0.000000000000e+00
  1.585872625419e-10 1.285452768248e-10 0.000000000000e+00
  5.109863970552e-11 4.241665500472e-11 0.000000000000e+00
  1.568111407468e-11 1.331370688039e-11 0.000000000000e+00
  4.579894107250e-12 3.972358478680e-12 0.000000000000e+00
  1.272162997535e-12 1.125906026467e-12 0.000000000000e+00
  3.358535993270e-13 3.029634694612e-13 0.000000000000e+00
  8.421730077158e-14 7.734914366439e-14 0.000000000000e+00
  2.004626706552e-14 1.872633880995e-14 0.000000000000e+00
  4.526845726530e-15 4.296841111801e-15 0.000000000000e+00
  9.692790014724e-16 9.339490674325e-16 0.000000000000e+00
  1.966822374128e-16 1.922046961173e-16 0.000000000000e+00
  3.780320376430e-17 3.743438893632e-17 0.000000000000e+00
  6.879666939685e-18 6.896307379166e-18 0.000000000000e+00
  1.188931839041e-18 1.197012131218e-18 0.000000000000e+00
  2.226793448601e-19 1.670697946193e-19 0.000000000000e+00
  0.000000000000e+00 0.000000000000e+00 0.000000000000e+00
  0.000000000000e+00 0.000000000000e+00 0.000000000000e+00
  6.502436758492e-20 -4.979086378388e-20 0.000000000000e+00
  3.661204777227e-19 -3.715334599920e-19 0.000000000000e+00
  2.223358184379e-18 -2.247430967646e-18 0.000000000000e+00
  1.282051294693e-17 -1.282051294693e-17 0.000000000000e+00
  7.001759418367e-17 -6.920679302215e-17 0.000000000000e+00
  3.623080837990e-16 -3.536884285123e-16 0.000000000000e+00
  1.777120612097e-15 -1.712008918237e-15 0.000000000000e+00
  8.266706851590e-15 -7.852295106246e-15 0.000000000000e+00
  3.648744109619e-14 -3.414242476715e-14 0.000000000000e+00
  1.528897471467e-13 -1.408027054587e-13 0.000000000000e+00
  6.085233028472e-13 -5.510218910614e-13 0.000000000000e+00
  2.301925715333e-12 -2.047393901742e-12 0.000000000000e+00
  8.281024167334e-12 -7.226929657256e-12 0.000000000000e+00
  2.834858878011e-11 -2.424841989288e-11 0.000000000000e+00
  9.241074655561e-11 -7.738559502572e-11 0.000000000000e+00
  2.870513106175e-10 -2.350534321953e-10 0.000000000000e+00
  8.502735211874e-10 -6.799838825749e-10 0.000000000000e+00
  2.403531063119e-09 -1.874843645754e-09 0.000000000000e+00
  6.488982697795e-09 -4.930463833122e-09 0.000000000000e+00
  1.674545650248e-08 -1.237660124946e-08 0.000000000000e+00
  4.134112184853e-08 -2.967924258658e-08 0.000000000000e+00
  9.772758100367e-08 -6.804567319972e-08 0.000000000000e+00
  2.214110208196e-07 -1.492841425700e-07 0.000000000000e+00
  4.812139799130e-07 -3.136685489731e-07 0.000000000000e+00