# vtk DataFile Version 3.0
Karman Output
ASCII
DATASET RECTILINEAR_GRID
DIMENSIONS 101 101 1
X_COORDINATES 101 float
   0.000000000000e+00   9.900990099010e-03   1.980198019802e-02   2.970297029703e-02   3.960396039604e-02   4.950495049505e-02   5.940594059406e-02   6.930693069307e-02   7.920792079208e-02   8.910891089109e-02   9.900990099010e-02   1.089108910891e-01   1.188118811881e-01   1.287128712871e-01   1.386138613861e-01   1.485148514851e-01   1.584158415842e-01   1.683168316832e-01   1.782178217822e-01   1.881188118812e-01   1.980198019802e-01   2.079207920792e-01   2.178217821782e-01   2.277227722772e-01   2.376237623762e-01   2.475247524752e-01   2.574257425743e-01   2.673267326733e-01   2.772277227723e-01   2.871287128713e-01   2.970297029703e-01   3.069306930693e-01   3.168316831683e-01   3.267326732673e-01   3.366336633663e-01   3.465346534653e-01   3.564356435644e-01   3.663366336634e-01   3.762376237624e-01   3.861386138614e-01   3.960396039604e-01   4.059405940594e-01   4.158415841584e-01   4.257425742574e-01   4.356435643564e-01   4.455445544554e-01   4.554455445545e-01   4.653465346535e-01   4.752475247525e-01   4.851485148515e-01   4.950495049505e-01   5.049504950495e-01   5.148514851485e-01   5.247524752475e-01   5.346534653465e-01   5.445544554455e-01   5.544554455446e-01   5.643564356436e-01   5.742574257426e-01   5.841584158416e-01   5.940594059406e-01   6.039603960396e-01   6.138613861386e-01   6.237623762376e-01   6.336633663366e-01   6.435643564356e-01   6.534653465347e-01   6.633663366337e-01   6.732673267327e-01   6.831683168317e-01   6.930693069307e-01   7.029702970297e-01   7.128712871287e-01   7.227722772277e-01   7.326732673267e-01   7.425742574257e-01   7.524752475248e-01   7.623762376238e-01   7.722772277228e-01   7.821782178218e-01   7.920792079208e-01   8.019801980198e-01   8.118811881188e-01   8.217821782178e-01   8.316831683168e-01   8.415841584158e-01   8.514851485149e-01   8.613861386139e-01   8.712871287129e-01   8.811881188119e-01   8.910891089109e-01   9.009900990099e-01   9.108910891089e-01   9.207920792079e-01   9.306930693069e-01   9.405940594059e-01   9.504950495050e-01   9.603960396040e-01   9.702970297030e-01   9.801980198020e-01   9.900990099010e-01
Y_COORDINATES 101 float
   0.000000000000e+00   9.900990099010e-03   1.980198019802e-02   2.970297029703e-02   3.960396039604e-02   4.950495049505e-02   5.940594059406e-02   6.930693069307e-02   7.920792079208e-02   8.910891089109e-02   9.900990099010e-02   1.089108910891e-01   1.188118811881e-01   1.287128712871e-01   1.386138613861e-01   1.485148514851e-01   1.584158415842e-01   1.683168316832e-01   1.782178217822e-01   1.881188118812e-01   1.980198019802e-01   2.079207920792e-01   2.178217821782e-01   2.277227722772e-01   2.376237623762e-01   2.475247524752e-01   2.574257425743e-01   2.673267326733e-01   2.772277227723e-01   2.871287128713e-01   2.970297029703e-01   3.069306930693e-01   3.168316831683e-01   3.267326732673e-01   3.366336633663e-01   3.465346534653e-01   3.564356435644e-01   3.663366336634e-01   3.762376237624e-01   3.861386138614e-01   3.960396039604e-01   4.059405940594e-01   4.158415841584e-01   4.257425742574e-01   4.356435643564e-01   4.455445544554e-01   4.554455445545e-01   4.653465346535e-01   4.752475247525e-01   4.851485148515e-01   4.950495049505e-01   5.049504950495e-01   5.148514851485e-01   5.247524752475e-01   5.346534653465e-01   5.445544554455e-01   5.544554455446e-01   5.643564356436e-01   5.742574257426e-01   5.841584158416e-01   5.940594059406e-01   6.039603960396e-01   6.138613861386e-01   6.237623762376e-01   6.336633663366e-01   6.435643564356e-01   6.534653465347e-01   6.633663366337e-01   6.732673267327e-01   6.831683168317e-01   6.930693069307e-01   7.029702970297e-01   7.128712871287e-01   7.227722772277e-01   7.326732673267e-01   7.425742574257e-01   7.524752475248e-01   7.623762376238e-01   7.722772277228e-01   7.821782178218e-01   7.920792079208e-01   8.019801980198e-01   8.118811881188e-01   8.217821782178e-01   8.316831683168e-01   8.415841584158e-01   8.514851485149e-01   8.613861386139e-01   8.712871287129e-01   8.811881188119e-01   8.910891089109e-01   9.009900990099e-01   9.108910891089e-01   9.207920792079e-01   9.306930693069e-01   9.405940594059e-01   9.504950495050e-01   9.603960396040e-01   9.702970297030e-01   9.801980198020e-01   9.900990099010e-01
Z_COORDINATES 1 float
  0.000000000000e+00
POINT_DATA 10201
VECTORS E_field float
  0.000000000000e+00 0.000000000000e+00 0.000000000000e+00
  0.000000000000e+00 0.000000000000e+00 0.000000000000e+00
  0.000000000000e+00 0.000000000000e+00 0.000000000000e+00
  0.000000000000e+00 0.000000000000e+00 0.000000000000e+00
  0.000000000000e+00 0.000000000000e+00 0.000000000000e+00
  0.000000000000e+00 0.000000000000e+00 0.000000000000e+00
  0.000000000000e+00 0.000000000000e+00 0.000000000000e+00
  0.000000000000e+00 0.000000000000e+00 0.000000000000e+00
  0.000000000000e+00 0.000000000000e+00 0.000000000000e+00
  0.000000000000e+00 0.000000000000e+00 0.000000000000e+00
  0.000000000000e+00 0.000000000000e+00 0.000000000000e+00
  0.000000000000e+00 0.000000000000e+00 0.000000000000e+00
  0.000000000000e+00 0.000000000000e+00 0.000000000000e+00
  0.000000000000e+00 0.000000000000e+00 0.000000000000e+00
  0.000000000000e+00 0.000000000000e+00 0.000000000000e+00
  0.000000000000e+00 0.000000000000e+00 0.000000000000e+00
  0.000000000000e+00 0.000000000000e+00 0.000000000000e+00
  0.000000000000e+00 0.000000000000e+00 0.000000000000e+00
  0.000000000000e+00 0.000000000000e+00 0.000000000000e+00
  0.000000000000e+00 0.000000000000e+00 0.000000000000e+00
  0.000000000000e+00 0.000000000000e+00 0.000000000000e+00
  0.000000000000e+00 0.000000000000e+00 0.000000000000e+00
  0.000000000000e+00 0.000000000000e+00 0.000000000000e+00
  0.000000000000e+00 0.000000000000e+00 0.000000000000e+00
  0.000000000000e+00 0.000000000000e+00 0.000000000000e+00
  0.000000000000e+00 0.000000000000e+00 0.000000000000e+00
  0.000000000000e+00 0.000000000000e+00 0.000000000000e+00
  0.000000000000e+00 0.000000000000e+00 0.000000000000e+00
  0.000000000000e+00 0.000000000000e+00 0.000000000000e+00
  0.000000000000e+00 0.000000000000e+00 0.000000000000e+00
  0.000000000000e+00 0.000000000000e+00 0.000000000000e+00
  0.000000000000e+00 0.000000000000e+00 0.000000000000e+00
  0.000000000000e+00 0.000000000000e+00 0.000000000000e+00
  0.000000000000e+00 0.000000000000e+00 0.000000000000e+00
  0.000000000000e+00 0.000000000000e+00 0.000000000000e+00
  0.000000000000e+00 0.000000000000e+00 0.000000000000e+00
  0.000000000000e+00 0.000000000000e+00 0.000000000000e+00
  0.000000000000e+00 0.000000000000e+00 0.000000000000e+00
  0.000000000000e+00 0.000000000000e+00 0.000000000000e+00
  0.000000000000e+00 0.000000000000e+00 0.000000000000e+00
  0.000000000000e+00 0.000000000000e+00 0.000000000000e+00
  0.000000000000e+00 0.000000000000e+00 0.000000000000e+00
  0.000000000000e+00 0.000000000000e+00 0.000000000000e+00
  0.000000000000e+00 0.000000000000e+00 0.000000000000e+00
  0.000000000000e+00 0.000000000000e+00 0.000000000000e+00
  0.000000000000e+00 0.000000000000e+00 0.000000000000e+00
  0.000000000000e+00 0.000000000000e+00 0.000000000000e+00
  0.000000000000e+00 0.000000000000e+00 0.000000000000e+00
  0.000000000000e+00 0.000000000000e+00 0.000000000000e+00
  0.000000000000e+00 0.000000000000e+00 0.000000000000e+00
  0.000000000000e+00 0.000000000000e+00 0.000000000000e+00
  0.000000000000e+00 0.000000000000e+00 0.000000000000e+00
  0.000000000000e+00 0.000000000000e+00 0.000000000000e+00
  0.000000000000e+00 0.000000000000e+00 0.000000000000e+00
  0.000000000000e+00 0.000000000000e+00 0.000000000000e+00
  0.000000000000e+00 0.000000000000e+00 0.000000000000e+00
  0.000000000000e+00 0.000000000000e+00 0.000000000000e+00
  0.000000000000e+00 0.000000000000e+00 0.000000000000e+00
  0.000000000000e+00 0.000000000000e+00 0.000000000000e+00
  0.000000000000e+00 0.000000000000e+00 0.000000000000e+00
  0.000000000000e+00 0.000000000000e+00 0.000000000000e+00
  0.000000000000e+00 0.000000000000e+00 0.000000000000e+00
  0.000000000000e+00 0.000000000000e+00 0.000000000000e+00
  0.000000000000e+00 0.000000000000e+00 0.000000000000e+00
  0.000000000000e+00 0.000000000000e+00 0.000000000000e+00
  0.000000000000e+00 0.000000000000e+00 0.000000000000e+00
  0.000000000000e+00 0.000000000000e+00 0.000000000000e+00
  0.000000000000e+00 0.000000000000e+00 0.000000000000e+00
  0.000000000000e+00 0.000000000000e+00 0.000000000000e+00
  0.000000000000e+00 0.000000000000e+00 0.000000000000e+00
  0.000000000000e+00 0.000000000000e+00 0.000000000000e+00
  0.000000000000e+00 0.000000000000e+00 0.000000000000e+00
  0.000000000000e+00 0.000000000000e+00 0.000000000000e+00
  0.000000000000e+00 0.000000000000e+00 0.000000000000e+00
  0.000000000000e+00 0.000000000000e+00 0.000000000000e+00
  0.000000000000e+00 0.000000000000e+00 0.000000000000e+00
  0.000000000000e+00 0.000000000000e+00 0.000000000000e+00
  0.000000000000e+00 0.000000000000e+00 0.000000000000e+00
  0.000000000000e+00 0.000000000000e+00 0.000000000000e+00
  0.000000000000e+00 0.000000000000e+00 0.000000000000e+00
  0.000000000000e+00 0.000000000000e+00 0.000000000000e+00
  0.000000000000e+00 0.000000000000e+00 0.000000000000e+00
  0.000000000000e+00 0.000000000000e+00 0.000000000000e+00
  0.000000000000e+00 0.000000000000e+00 0.000000000000e+00
  0.000000000000e+00 0.000000000000e+00 0.000000000000e+00
  0.000000000000e+00 0.000000000000e+00 0.000000000000e+00
  0.000000000000e+00 0.000000000000e+00 0.000000000000e+00
  0.000000000000e+00 0.000000000000e+00 0.000000000000e+00
  0.000000000000e+00 0.000000000000e+00 0.000000000000e+00
  0.000000000000e+00 0.000000000000e+00 0.000000000000e+00
  0.000000000000e+00 0.000000000000e+00 0.000000000000e+00
  0.000000000000e+00 0.000000000000e+00 0.000000000000e+00
  0.000000000000e+00 0.000000000000e+00 0.000000000000e+00
  0.000000000000e+00 0.000000000000e+00 0.000000000000e+00
  0.000000000000e+00 0.000000000000e+00 0.000000000000e+00
  0.000000000000e+00 0.000000000000e+00 0.000000000000e+00
  0.000000000000e+00 0.000000000000e+00 0.000000000000e+00
  0.000000000000e+00 0.000000000000e+00 0.000000000000e+00
  0.000000000000e+00 0.000000000000e+00 0.000000000000e+00
  0.000000000000e+00 0.000000000000e+00 0.000000000000e+00
  0.000000000000e+00 0.000000000000e+00 0.000000000000e+00
  0.000000000000e+00 0.000000000000e+00 0.000000000000e+00
  -9.132969064821e-03 9.132969064822e-03 0.000000000000e+00
  -1.107436353549e-02 2.706576822001e-02 0.000000000000e+00
  -1.454214383449e-02 4.380401368507e-02 0.000000000000e+00
  -1.883470658020e-02 5.809052618437e-02 0.000000000000e+00
  -2.316952315445e-02 6.853809680765e-02 0.000000000000e+00
  -2.688721476127e-02 7.436101343526e-02 0.000000000000e+00
  -2.958277164622e-02 7.622685609746e-02 0.000000000000e+00
  -3.113003960312e-02 7.666041745575e-02 0.000000000000e+00
  -3.161332337527e-02 7.952799917569e-02 0.000000000000e+00
  -3.121509833773e-02 8.859122621524e-02 0.000000000000e+00
  -3.011679840059e-02 1.057254484263e-01 0.000000000000e+00
  -2.845078197926e-02 1.297478065717e-01 0.000000000000e+00
  -2.630912717703e-02 1.565912088649e-01 0.000000000000e+00
  -2.378657902522e-02 1.808515668756e-01 0.000000000000e+00
  -2.102346040165e-02 1.979507583605e-01 0.000000000000e+00
  -1.822202045279e-02 2.058004354877e-01 0.000000000000e+00
  -1.562912495003e-02 2.051544494496e-01 0.000000000000e+00
  -1.349723434766e-02 1.986127569855e-01 0.000000000000e+00
  -1.204398458893e-02 1.890134128323e-01 0.000000000000e+00
  -1.142534062561e-02 1.782557402457e-01 0.000000000000e+00
  -1.172390079040e-02 1.672499178937e-01 0.000000000000e+00
  -1.294305872481e-02 1.568936478463e-01 0.000000000000e+00
  -1.499748811622e-02 1.492374866659e-01 0.000000000000e+00
  -1.770049989440e-02 1.478194062181e-01 0.000000000000e+00
  -2.076068292720e-02 1.566867499106e-01 0.000000000000e+00
  -2.380356471502e-02 1.785453163561e-01 0.000000000000e+00
  -2.642461562137e-02 2.131454485441e-01 0.000000000000e+00
  -2.826298371871e-02 2.569428461245e-01 0.000000000000e+00
  -2.907196530418e-02 3.042821353934e-01 0.000000000000e+00
  -2.876160285983e-02 3.493835603796e-01 0.000000000000e+00
  -2.740178748037e-02 3.879367870918e-01 0.000000000000e+00
  -2.519246733398e-02 4.174417144807e-01 0.000000000000e+00
  -2.241921175315e-02 4.363392728903e-01 0.000000000000e+00
  -1.941070046728e-02 4.428179397853e-01 0.000000000000e+00
  -1.650305911258e-02 4.343886175395e-01 0.000000000000e+00
  -1.400515088970e-02 4.087524274010e-01 0.000000000000e+00
  -1.215847589171e-02 3.655302896959e-01 0.000000000000e+00
  -1.109554602277e-02 3.077354091337e-01 0.000000000000e+00
  -1.081223332101e-02 2.419259472559e-01 0.000000000000e+00
  -1.117148279561e-02 1.767340257507e-01 0.000000000000e+00
  -1.194428333123e-02 1.204006456230e-01 0.000000000000e+00
  -1.287587657053e-02 7.843818687869e-02 0.000000000000e+00
  -1.375283798956e-02 5.234699949292e-02 0.000000000000e+00
  -1.444756792592e-02 3.968902971303e-02 0.000000000000e+00
  -1.492911032812e-02 3.524749519202e-02 0.000000000000e+00
  -1.524442849428e-02 3.276141668557e-02 0.000000000000e+00
  -1.548380725907e-02 2.675286986168e-02 0.000000000000e+00
  -1.574479987120e-02 1.404399045878e-02 0.000000000000e+00
  -1.610360193750e-02 -5.405179246323e-03 0.000000000000e+00
  -1.659586441913e-02 -2.862379016205e-02 0.000000000000e+00
  -1.720486999180e-02 -5.076135331026e-02 0.000000000000e+00
  -1.785531280094e-02 -6.689643102492e-02 0.000000000000e+00
  -1.841452643444e-02 -7.390996778057e-02 0.000000000000e+00
  -1.870677160583e-02 -7.178553585767e-02 0.000000000000e+00
  -1.854651517046e-02 -6.394168287457e-02 0.000000000000e+00
  -1.779132316209e-02 -5.654278348854e-02 0.000000000000e+00
  -1.640478687779e-02 -5.698801855156e-02 0.000000000000e+00
  -1.450893307730e-02 -7.190513260703e-02 0.000000000000e+00
  -1.240039147194e-02 -1.050829989546e-01 0.000000000000e+00
  -1.051123142787e-02 -1.559316715486e-01 0.000000000000e+00
  -9.314836989592e-03 -2.191269086974e-01 0.000000000000e+00
  -9.202232979280e-03 -2.858313105294e-01 0.000000000000e+00
  -1.037146697805e-02 -3.462258799321e-01 0.000000000000e+00
  -1.277038529266e-02 -3.923562094404e-01 0.000000000000e+00
  -1.611061459495e-02 -4.200262002642e-01 0.000000000000e+00
  -1.994004096683e-02 -4.289539224760e-01 0.000000000000e+00
  -2.374028134707e-02 -4.213950052529e-01 0.000000000000e+00
  -2.701538010929e-02 -4.002924065636e-01 0.000000000000e+00
  -2.935469918049e-02 -3.681536427815e-01 0.000000000000e+00
  -3.047226157179e-02 -3.272078878480e-01 0.000000000000e+00
  -3.023279013360e-02 -2.804190805864e-01 0.000000000000e+00
  -2.866836958084e-02 -2.323015604562e-01 0.000000000000e+00
  -2.597812804109e-02 -1.886274458394e-01 0.000000000000e+00
  -2.249939863493e-02 -1.549243883111e-01 0.000000000000e+00
  -1.864823021021e-02 -1.345714810081e-01 0.000000000000e+00
  -1.484383736996e-02 -1.276649501676e-01 0.000000000000e+00
  -1.144262349393e-02 -1.313740461246e-01 0.000000000000e+00
  -8.703222126677e-03 -1.415510168630e-01 0.000000000000e+00
  -6.786330098397e-03 -1.545719210113e-01 0.000000000000e+00
  -5.774179103831e-03 -1.683143610610e-01 0.000000000000e+00
  -5.687860925074e-03 -1.818453236444e-01 0.000000000000e+00
  -6.490638418648e-03 -1.942974918641e-01 0.000000000000e+00
  -8.083211502589e-03 -2.039238370236e-01 0.000000000000e+00
  -1.030787691689e-02 -2.081254068942e-01 0.000000000000e+00
  -1.297350877187e-02 -2.045287684820e-01 0.000000000000e+00
  -1.589608259571e-02 -1.924462173895e-01 0.000000000000e+00
  -1.893355630978e-02 -1.737509984302e-01 0.000000000000e+00
  -2.199196868590e-02 -1.525093128140e-01 0.000000000000e+00
  -2.499436924645e-02 -1.334337536473e-01 0.000000000000e+00
  -2.782723624864e-02 -1.199239254960e-01 0.000000000000e+00
  -3.029676940533e-02 -1.127145017398e-01 0.000000000000e+00
  -3.212905254959e-02 -1.098018092564e-01 0.000000000000e+00
  -3.303088019844e-02 -1.075910326383e-01 0.000000000000e+00
  -3.279859734946e-02 -1.025622791353e-01 0.000000000000e+00
  -3.143383433178e-02 -9.257988880426e-02 0.000000000000e+00
  -2.921197335951e-02 -7.731023715182e-02 0.000000000000e+00
  -2.666047094765e-02 -5.778179390931e-02 0.000000000000e+00
  -2.443784028123e-02 -3.554553032392e-02 0.000000000000e+00
  -2.314673980348e-02 -1.197455912116e-02 0.000000000000e+00
  0.000000000000e+00 0.000000000000e+00 0.000000000000e+00
  0.000000000000e+00 0.000000000000e+00 0.000000000000e+00
  -2.706576822001e-02 1.107436353549e-02 0.000000000000e+00
  -3.245959246434e-02 3.245959246434e-02 0.000000000000e+00
  -4.207810724015e-02 5.149648451556e-02 0.000000000000e+00
  -5.394805382502e-02 6.656056468446e-02 0.000000000000e+00
  -6.587607729924e-02 7.633089835602e-02 0.000000000000e+00
  -7.602688661557e-02 8.043671281004e-02 0.000000000000e+00
  -8.329252865508e-02 8.011235564714e-02 0.000000000000e+00
  -8.735662212462e-02 7.838627933251e-02 0.000000000000e+00
  -8.849369496625e-02 7.942249391271e-02 0.000000000000e+00
  -8.724418357390e-02 8.704899504832e-02 0.000000000000e+00
  -8.412864607149e-02 1.030538421537e-01 0.000000000000e+00
  -7.951103615069e-02 1.261357865022e-01 0.000000000000e+00
  -7.362788373367e-02 1.521784217152e-01 0.000000000000e+00
  -6.671819941549e-02 1.758321215553e-01 0.000000000000e+00
  -5.915442641994e-02 1.926433120616e-01 0.000000000000e+00
  -5.149550124320e-02 2.006475166609e-01 0.000000000000e+00
  -4.443895069132e-02 2.006579222217e-01 0.000000000000e+00
  -3.870549129996e-02 1.952439342197e-01 0.000000000000e+00
  -3.491644179580e-02 1.871399363353e-01 0.000000000000e+00
  -3.351089256215e-02 1.781050235458e-01 0.000000000000e+00
  -3.471075010417e-02 1.688990523004e-01 0.000000000000e+00
  -3.850781198443e-02 1.602607332543e-01 0.000000000000e+00
  -4.464294397095e-02 1.540599626359e-01 0.000000000000e+00
  -5.257469463580e-02 1.536316926912e-01 0.000000000000e+00
  -6.146993784899e-02 1.628298896835e-01 0.000000000000e+00
  -7.026185238724e-02 1.842369729093e-01 0.000000000000e+00
  -7.779635508638e-02 2.176093455964e-01 0.000000000000e+00
  -8.304008887209e-02 2.595610509553e-01 0.000000000000e+00
  -8.528294204362e-02 3.047157653196e-01 0.000000000000e+00
  -8.426381054602e-02 3.476204365114e-01 0.000000000000e+00
  -8.018403015225e-02 3.842603151868e-01 0.000000000000e+00
  -7.362528247707e-02 4.123501185642e-01 0.000000000000e+00
  -6.542332751783e-02 4.304556582671e-01 0.000000000000e+00
  -5.654519830074e-02 4.368149139064e-01 0.000000000000e+00
  -4.798448986507e-02 4.289232936296e-01 0.000000000000e+00
  -4.065816066172e-02 4.043935138876e-01 0.000000000000e+00
  -3.528668299475e-02 3.626710505494e-01 0.000000000000e+00
  -3.226886534063e-02 3.065139007655e-01 0.000000000000e+00
  -3.159675233661e-02 2.421920299314e-01 0.000000000000e+00
  -3.286229711809e-02 1.780927373506e-01 0.000000000000e+00
  -3.537483638927e-02 1.223272738574e-01 0.000000000000e+00
  -3.835627469639e-02 8.042459022800e-02 0.000000000000e+00
  -4.114371747765e-02 5.402500039180e-02 0.000000000000e+00
  -4.332979282291e-02 4.089183415402e-02 0.000000000000e+00
  -4.480497646674e-02 3.600141686404e-02 0.000000000000e+00
  -4.570985235407e-02 3.322768913944e-02 0.000000000000e+00
  -4.633413526982e-02 2.715025916128e-02 0.000000000000e+00
  -4.700393594605e-02 1.457739451505e-02 0.000000000000e+00
  -4.798540549495e-02 -4.598311631625e-03 0.000000000000e+00
  -4.941485622372e-02 -2.750894452805e-02 0.000000000000e+00
  -5.125399722129e-02 -4.942805235736e-02 0.000000000000e+00
  -5.326863860976e-02 -6.556464778704e-02 0.000000000000e+00
  -5.503728793926e-02 -7.291388808501e-02 0.000000000000e+00
  -5.600419817242e-02 -7.152246019772e-02 0.000000000000e+00
  -5.559010000741e-02 -6.477911319823e-02 0.000000000000e+00
  -5.335755830798e-02 -5.869308694413e-02 0.000000000000e+00
  -4.919919092517e-02 -6.038261883639e-02 0.000000000000e+00
  -4.348763632312e-02 -7.611794079450e-02 0.000000000000e+00
  -3.711422281138e-02 -1.093521459465e-01 0.000000000000e+00
  -3.136488674490e-02 -1.593010207196e-01 0.000000000000e+00
  -2.763878248291e-02 -2.206800582684e-01 0.000000000000e+00
  -2.708605119063e-02 -2.849434962926e-01 0.000000000000e+00
  -3.028834363392e-02 -3.427421677495e-01 0.000000000000e+00
  -3.709682042760e-02 -3.866325265302e-01 0.000000000000e+00
  -4.667635883361e-02 -4.128301154762e-01 0.000000000000e+00
  -5.771726168467e-02 -4.212796780473e-01 0.000000000000e+00
  -6.871731121437e-02 -4.142689597754e-01 0.000000000000e+00
  -7.823758575904e-02 -3.946230787363e-01 0.000000000000e+00
  -8.508404391639e-02 -3.646371933813e-01 0.000000000000e+00
  -8.842182442356e-02 -3.262689943503e-01 0.000000000000e+00
  -8.785125382239e-02 -2.821680161238e-01 0.000000000000e+00
  -8.345597742206e-02 -2.365123218720e-01 0.000000000000e+00
  -7.580099217698e-02 -1.947619112085e-01 0.000000000000e+00
  -6.584816355896e-02 -1.622214809663e-01 0.000000000000e+00
  -5.478462139173e-02 -1.421890989450e-01 0.000000000000e+00
  -4.380706590068e-02 -1.348292805621e-01 0.000000000000e+00
  -3.393519300955e-02 -1.374828024973e-01 0.000000000000e+00
  -2.591383294435e-02 -1.462030219227e-01 0.000000000000e+00
  -2.021242182630e-02 -1.575382190979e-01 0.000000000000e+00
  -1.707769101695e-02 -1.694949447784e-01 0.000000000000e+00
  -1.657881518242e-02 -1.812499339404e-01 0.000000000000e+00
  -1.861405036807e-02 -1.920548688890e-01 0.000000000000e+00
  -2.289820249005e-02 -2.002897347928e-01 0.000000000000e+00
  -2.897921911249e-02 -2.034538270883e-01 0.000000000000e+00
  -3.631546487225e-02 -1.991984706732e-01 0.000000000000e+00
  -4.439530061478e-02 -1.867741056319e-01 0.000000000000e+00
  -5.283634130966e-02 -1.679445957788e-01 0.000000000000e+00
  -6.139839629378e-02 -1.466952481052e-01 0.000000000000e+00
  -6.988802940498e-02 -1.277557846845e-01 0.000000000000e+00
  -7.799904208760e-02 -1.146580147741e-01 0.000000000000e+00
  -8.518323380211e-02 -1.083266875906e-01 0.000000000000e+00
  -9.064932700515e-02 -1.068912470584e-01 0.000000000000e+00
  -9.353790995314e-02 -1.067111842395e-01 0.000000000000e+00
  -9.323564596504e-02 -1.039766743712e-01 0.000000000000e+00
  -8.971047460830e-02 -9.605542794280e-02 0.000000000000e+00
  -8.371215853091e-02 -8.205487506293e-02 0.000000000000e+00
  -7.671473212971e-02 -6.258608481127e-02 0.000000000000e+00
  -7.057379585686e-02 -3.910480636123e-02 0.000000000000e+00
  -6.699392590625e-02 -1.328625351220e-02 0.000000000000e+00
  0.000000000000e+00 0.000000000000e+00 0.000000000000e+00
  0.000000000000e+00 0.000000000000e+00 0.000000000000e+00
  -4.380401368507e-02 1.454214383449e-02 0.000000000000e+00
  -5.149648451556e-02 4.207810724015e-02 0.000000000000e+00
  -6.516479766956e-02 6.516479766956e-02 0.000000000000e+00
  -8.192132397908e-02 8.151872442484e-02 0.000000000000e+00
  -9.857874573005e-02 8.995818384083e-02 0.000000000000e+00
  -1.125086403193e-01 9.089013123085e-02 0.000000000000e+00
  -1.221825698832e-01 8.659850882972e-02 0.000000000000e+00
  -1.272524514434e-01 8.103410117963e-02 0.000000000000e+00
  -1.282325417528e-01 7.889183521661e-02 0.000000000000e+00
  -1.259968848867e-01 8.409448548603e-02 0.000000000000e+00
  -1.213412573959e-01 9.823718672278e-02 0.000000000000e+00
  -1.147780981270e-01 1.197716727434e-01 0.000000000000e+00
  -1.065917584436e-01 1.444730433735e-01 0.000000000000e+00
  -9.705456851897e-02 1.670906256541e-01 0.000000000000e+00
  -8.664767667444e-02 1.834141431227e-01 0.000000000000e+00
  -7.615870664713e-02 1.917287903957e-01 0.000000000000e+00
  -6.661363679908e-02 1.929750280870e-01 0.000000000000e+00
  -5.909169874891e-02 1.896714309130e-01 0.000000000000e+00
  -5.452086468917e-02 1.843525560781e-01 0.000000000000e+00
  -5.353658022277e-02 1.785025701029e-01 0.000000000000e+00
  -5.642601574710e-02 1.725907988096e-01 0.000000000000e+00
  -6.312047401132e-02 1.670605068896e-01 0.000000000000e+00
  -7.318278729930e-02 1.634576342751e-01 0.000000000000e+00
  -8.577345096407e-02 1.647564353815e-01 0.000000000000e+00
  -9.963659009979e-02 1.744635293420e-01 0.000000000000e+00
  -1.131754045300e-01 1.949340622192e-01 0.000000000000e+00
  -1.246579423997e-01 2.259292968553e-01 0.000000000000e+00
  -1.325225337809e-01 2.643494248632e-01 0.000000000000e+00
  -1.356861405422e-01 3.053338513446e-01 0.000000000000e+00
  -1.337452657175e-01 3.440423441645e-01 0.000000000000e+00
  -1.270091092644e-01 3.770224706875e-01 0.000000000000e+00
  -1.163846443329e-01 4.024047504583e-01 0.000000000000e+00
  -1.031889456668e-01 4.190033727506e-01 0.000000000000e+00
  -8.896130102738e-02 4.251614255721e-01 0.000000000000e+00
  -7.529830415777e-02 4.183530766693e-01 0.000000000000e+00
  -6.368695424786e-02 3.960260517536e-01 0.000000000000e+00
  -5.530781596314e-02 3.572878967641e-01 0.000000000000e+00
  -5.082614964160e-02 3.043975706278e-01 0.000000000000e+00
  -5.024342087665e-02 2.430535183818e-01 0.000000000000e+00
  -5.289402159613e-02 1.811473945220e-01 0.000000000000e+00
  -5.762322936048e-02 1.265143638916e-01 0.000000000000e+00
  -6.310053358869e-02 8.469624295708e-02 0.000000000000e+00
  -6.816012937639e-02 5.760038652225e-02 0.000000000000e+00
  -7.205444617970e-02 4.339684052359e-02 0.000000000000e+00
  -7.455397049981e-02 3.747111886043e-02 0.000000000000e+00
  -7.589311868070e-02 3.400201164400e-02 0.000000000000e+00
  -7.661086360545e-02 2.771796493187e-02 0.000000000000e+00
  -7.734984699635e-02 1.541847321316e-02 0.000000000000e+00
  -7.866528277232e-02 -3.142484673267e-03 0.000000000000e+00
  -8.087252813289e-02 -2.532807516872e-02 0.000000000000e+00
  -8.394537911090e-02 -4.669692964031e-02 0.000000000000e+00
  -8.747290522377e-02 -6.275360304053e-02 0.000000000000e+00
  -9.068794215046e-02 -7.074124674757e-02 0.000000000000e+00
  -9.258467613743e-02 -7.083145760313e-02 0.000000000000e+00
  -9.213398153697e-02 -6.633490893246e-02 0.000000000000e+00
  -8.857714472859e-02 -6.292667014199e-02 0.000000000000e+00
  -8.173657014842e-02 -6.714797803935e-02 0.000000000000e+00
  -7.224369672432e-02 -8.455701003696e-02 0.000000000000e+00
  -6.157500992839e-02 -1.179551773882e-01 0.000000000000e+00
  -5.182770746145e-02 -1.661946281304e-01 0.000000000000e+00
  -4.525660960552e-02 -2.240836532318e-01 0.000000000000e+00
  -4.369970855516e-02 -2.836495338673e-01 0.000000000000e+00
  -4.808493706496e-02 -3.364486093636e-01 0.000000000000e+00
  -5.818999142386e-02 -3.760125538616e-01 0.000000000000e+00
  -7.272223437835e-02 -3.993383068489e-01 0.000000000000e+00
  -8.965274791669e-02 -4.068000703258e-01 0.000000000000e+00
  -1.066531563191e-01 -4.007481095891e-01 0.000000000000e+00
  -1.214887920379e-01 -3.837880186730e-01 0.000000000000e+00
  -1.322977208389e-01 -3.578168664939e-01 0.000000000000e+00
  -1.377678926738e-01 -3.242813688996e-01 0.000000000000e+00
  -1.372558835026e-01 -2.852382213488e-01 0.000000000000e+00
  -1.308609874160e-01 -2.442322891348e-01 0.000000000000e+00
  -1.194197659392e-01 -2.061381506680e-01 0.000000000000e+00
  -1.043734893533e-01 -1.758443467110e-01 0.000000000000e+00
  -8.750540865819e-02 -1.564978560626e-01 0.000000000000e+00
  -7.061635207029e-02 -1.483871355234e-01 0.000000000000e+00
  -5.524892563224e-02 -1.491642468651e-01 0.000000000000e+00
  -4.254550055185e-02 -1.552463627004e-01 0.000000000000e+00
  -3.324693182675e-02 -1.634948581633e-01 0.000000000000e+00
  -2.776318919378e-02 -1.721567791553e-01 0.000000000000e+00
  -2.622851088979e-02 -1.806216537020e-01 0.000000000000e+00
  -2.850279618434e-02 -1.883736286472e-01 0.000000000000e+00
  -3.415502060429e-02 -1.940345984928e-01 0.000000000000e+00
  -4.250134320722e-02 -1.952816241630e-01 0.000000000000e+00
  -5.273842476842e-02 -1.897973462775e-01 0.000000000000e+00
  -6.413482254478e-02 -1.766989965086e-01 0.000000000000e+00
  -7.617993558651e-02 -1.575335511654e-01 0.000000000000e+00
  -8.859111564713e-02 -1.361330576738e-01 0.000000000000e+00
  -1.011509131090e-01 -1.172685445427e-01 0.000000000000e+00
  -1.134481266154e-01 -1.047370287267e-01 0.000000000000e+00
  -1.246702228667e-01 -9.984138567212e-02 0.000000000000e+00
  -1.335971036704e-01 -1.009835749701e-01 0.000000000000e+00
  -1.388682338445e-01 -1.044591432058e-01 0.000000000000e+00
  -1.394660973653e-01 -1.059331158723e-01 0.000000000000e+00
  -1.352352822343e-01 -1.018549729294e-01 0.000000000000e+00
  -1.271996499428e-01 -9.028927844513e-02 0.000000000000e+00
  -1.174883811941e-01 -7.106037657897e-02 0.000000000000e+00
  -1.088276108755e-01 -4.543222118499e-02 0.000000000000e+00
  -1.037405342708e-01 -1.562578524379e-02 0.000000000000e+00
  0.000000000000e+00 0.000000000000e+00 0.000000000000e+00
  0.000000000000e+00 0.000000000000e+00 0.000000000000e+00
  -5.809052618437e-02 1.883470658021e-02 0.000000000000e+00
  -6.656056468446e-02 5.394805382502e-02 0.000000000000e+00
  -8.151872442484e-02 8.192132397908e-02 0.000000000000e+00
  -9.964823591532e-02 9.964823591532e-02 0.000000000000e+00
  -1.173277452909e-01 1.061656034769e-01 0.000000000000e+00
  -1.316396179569e-01 1.029244788500e-01 0.000000000000e+00
  -1.409928682009e-01 9.359134101854e-02 0.000000000000e+00
  -1.451920600022e-01 8.331034235228e-02 0.000000000000e+00
  -1.450302047631e-01 7.743382911417e-02 0.000000000000e+00
  -1.416653346152e-01 7.995196457454e-02 0.000000000000e+00
  -1.360831621360e-01 9.214190766433e-02 0.000000000000e+00
  -1.288522020125e-01 1.120728324094e-01 0.000000000000e+00
  -1.202070501532e-01 1.353403921649e-01 0.000000000000e+00
  -1.103385198972e-01 1.568175566821e-01 0.000000000000e+00
  -9.969444471144e-02 1.726362450644e-01 0.000000000000e+00
  -8.912370548807e-02 1.814469792033e-01 0.000000000000e+00
  -7.980036333344e-02 1.843884272767e-01 0.000000000000e+00
  -7.298430934257e-02 1.839200396822e-01 0.000000000000e+00
  -6.974648966916e-02 1.822952935757e-01 0.000000000000e+00