# vtk DataFile Version 3.0
Karman Output
ASCII
DATASET RECTILINEAR_GRID
DIMENSIONS 101 101 1
X_COORDINATES 101 float
   0.000000000000e+00   9.900990099010e-03   1.980198019802e-02   2.970297029703e-02   3.960396039604e-02   4.950495049505e-02   5.940594059406e-02   6.930693069307e-02   7.920792079208e-02   8.910891089109e-02   9.900990099010e-02   1.089108910891e-01   1.188118811881e-01   1.287128712871e-01   1.386138613861e-01   1.485148514851e-01   1.584158415842e-01   1.683168316832e-01   1.782178217822e-01   1.881188118812e-01   1.980198019802e-01   2.079207920792e-01   2.178217821782e-01   2.277227722772e-01   2.376237623762e-01   2.475247524752e-01   2.574257425743e-01   2.673267326733e-01   2.772277227723e-01   2.871287128713e-01   2.970297029703e-01   3.069306930693e-01   3.168316831683e-01   3.267326732673e-01   3.366336633663e-01   3.465346534653e-01   3.564356435644e-01   3.663366336634e-01   3.762376237624e-01   3.861386138614e-01   3.960396039604e-01   4.059405940594e-01   4.158415841584e-01   4.257425742574e-01   4.356435643564e-01   4.455445544554e-01   4.554455445545e-01   4.653465346535e-01   4.752475247525e-01   4.851485148515e-01   4.950495049505e-01   5.049504950495e-01   5.148514851485e-01   5.247524752475e-01   5.346534653465e-01   5.445544554455e-01   5.544554455446e-01   5.643564356436e-01   5.742574257426e-01   5.841584158416e-01   5.940594059406e-01   6.039603960396e-01   6.138613861386e-01   6.237623762376e-01   6.336633663366e-01   6.435643564356e-01   6.534653465347e-01   6.633663366337e-01   6.732673267327e-01   6.831683168317e-01   6.930693069307e-01   7.029702970297e-01   7.128712871287e-01   7.227722772277e-01   7.326732673267e-01   7.425742574257e-01   7.524752475248e-01   7.623762376238e-01   7.722772277228e-01   7.821782178218e-01   7.920792079208e-01   8.019801980198e-01   8.118811881188e-01   8.217821782178e-01   8.316831683168e-01   8.415841584158e-01   8.514851485149e-01   8.613861386139e-01   8.712871287129e-01   8.811881188119e-01   8.910891089109e-01   9.009900990099e-01   9.108910891089e-01   9.207920792079e-01   9.306930693069e-01   9.405940594059e-01   9.504950495050e-01   9.603960396040e-01   9.702970297030e-01   9.801980198020e-01   9.900990099010e-01
Y_COORDINATES 101 float
   0.000000000000e+00   9.900990099010e-03   1.980198019802e-02   2.970297029703e-02   3.960396039604e-02   4.950495049505e-02   5.940594059406e-02   6.930693069307e-02   7.920792079208e-02   8.910891089109e-02   9.900990099010e-02   1.089108910891e-01   1.188118811881e-01   1.287128712871e-01   1.386138613861e-01   1.485148514851e-01   1.584158415842e-01   1.683168316832e-01   1.782178217822e-01   1.881188118812e-01   1.980198019802e-01   2.079207920792e-01   2.178217821782e-01   2.277227722772e-01   2.376237623762e-01   2.475247524752e-01   2.574257425743e-01   2.673267326733e-01   2.772277227723e-01   2.871287128713e-01   2.970297029703e-01   3.069306930693e-01   3.168316831683e-01   3.267326732673e-01   3.366336633663e-01   3.465346534653e-01   3.564356435644e-01   3.663366336634e-01   3.762376237624e-01   3.861386138614e-01   3.960396039604e-01   4.059405940594e-01   4.158415841584e-01   4.257425742574e-01   4.356435643564e-01   4.455445544554e-01   4.554455445545e-01   4.653465346535e-01   4.752475247525e-01   4.851485148515e-01   4.950495049505e-01   5.049504950495e-01   5.148514851485e-01   5.247524752475e-01   5.346534653465e-01   5.445544554455e-01   5.544554455446e-01   5.643564356436e-01   5.742574257426e-01   5.841584158416e-01   5.940594059406e-01   6.039603960396e-01   6.138613861386e-01   6.237623762376e-01   6.336633663366e-01   6.435643564356e-01   6.534653465347e-01   6.633663366337e-01   6.732673267327e-01   6.831683168317e-01   6.930693069307e-01   7.029702970297e-01   7.128712871287e-01   7.227722772277e-01   7.326732673267e-01   7.425742574257e-01   7.524752475248e-01   7.623762376238e-01   7.722772277228e-01   7.821782178218e-01   7.920792079208e-01   8.019801980198e-01   8.118811881188e-01   8.217821782178e-01   8.316831683168e-01   8.415841584158e-01   8.514851485149e-01   8.613861386139e-01   8.712871287129e-01   8.811881188119e-01   8.910891089109e-01   9.009900990099e-01   9.108910891089e-01   9.207920792079e-01   9.306930693069e-01   9.405940594059e-01   9.504950495050e-01   9.603960396040e-01   9.702970297030e-01   9.801980198020e-01   9.900990099010e-01
Z_COORDINATES 1 float
  0.000000000000e+00
POINT_DATA 10201
VECTORS E_field float
  0.000000000000e+00 0.000000000000e+00 0.000000000000e+00
  0.000000000000e+00 0.000000000000e+00 0.000000000000e+00
  0.000000000000e+00 0.000000000000e+00 0.000000000000e+00
  0.000000000000e+00 0.000000000000e+00 0.000000000000e+00
  0.000000000000e+00 0.000000000000e+00 0.000000000000e+00
  0.000000000000e+00 0.000000000000e+00 0.000000000000e+00
  0.000000000000e+00 0.000000000000e+00 0.000000000000e+00
  0.000000000000e+00 0.000000000000e+00 0.000000000000e+00
  0.000000000000e+00 0.000000000000e+00 0.000000000000e+00
  0.000000000000e+00 0.000000000000e+00 0.000000000000e+00
  0.000000000000e+00 0.000000000000e+00 0.000000000000e+00
  0.000000000000e+00 0.000000000000e+00 0.000000000000e+00
  0.000000000000e+00 0.000000000000e+00 0.000000000000e+00
  0.000000000000e+00 0.000000000000e+00 0.000000000000e+00
  0.000000000000e+00 0.000000000000e+00 0.000000000000e+00
  0.000000000000e+00 0.000000000000e+00 0.000000000000e+00
  0.000000000000e+00 0.000000000000e+00 0.000000000000e+00
  0.000000000000e+00 0.000000000000e+00 0.000000000000e+00
  0.000000000000e+00 0.000000000000e+00 0.000000000000e+00
  0.000000000000e+00 0.000000000000e+00 0.000000000000e+00
  0.000000000000e+00 0.000000000000e+00 0.000000000000e+00
  0.000000000000e+00 0.000000000000e+00 0.000000000000e+00
  0.000000000000e+00 0.000000000000e+00 0.000000000000e+00
  0.000000000000e+00 0.000000000000e+00 0.000000000000e+00
  0.000000000000e+00 0.000000000000e+00 0.000000000000e+00
  0.000000000000e+00 0.000000000000e+00 0.000000000000e+00
  0.000000000000e+00 0.000000000000e+00 0.000000000000e+00
  0.000000000000e+00 0.000000000000e+00 0.000000000000e+00
  0.000000000000e+00 0.000000000000e+00 0.000000000000e+00
  0.000000000000e+00 0.000000000000e+00 0.000000000000e+00
  0.000000000000e+00 0.000000000000e+00 0.000000000000e+00
  0.000000000000e+00 0.000000000000e+00 0.000000000000e+00
  0.000000000000e+00 0.000000000000e+00 0.000000000000e+00
  0.000000000000e+00 0.000000000000e+00 0.000000000000e+00
  0.000000000000e+00 0.000000000000e+00 0.000000000000e+00
  0.000000000000e+00 0.000000000000e+00 0.000000000000e+00
  0.000000000000e+00 0.000000000000e+00 0.000000000000e+00
  0.000000000000e+00 0.000000000000e+00 0.000000000000e+00
  0.000000000000e+00 0.000000000000e+00 0.000000000000e+00
  0.000000000000e+00 0.000000000000e+00 0.000000000000e+00
  0.000000000000e+00 0.000000000000e+00 0.000000000000e+00
  0.000000000000e+00 0.000000000000e+00 0.000000000000e+00
  0.000000000000e+00 0.000000000000e+00 0.000000000000e+00
  0.000000000000e+00 0.000000000000e+00 0.000000000000e+00
  0.000000000000e+00 0.000000000000e+00 0.000000000000e+00
  0.000000000000e+00 0.000000000000e+00 0.000000000000e+00
  0.000000000000e+00 0.000000000000e+00 0.000000000000e+00
  0.000000000000e+00 0.000000000000e+00 0.000000000000e+00
  0.000000000000e+00 0.000000000000e+00 0.000000000000e+00
  0.000000000000e+00 0.000000000000e+00 0.000000000000e+00
  0.000000000000e+00 0.000000000000e+00 0.000000000000e+00
  0.000000000000e+00 0.000000000000e+00 0.000000000000e+00
  0.000000000000e+00 0.000000000000e+00 0.000000000000e+00
  0.000000000000e+00 0.000000000000e+00 0.000000000000e+00
  0.000000000000e+00 0.000000000000e+00 0.000000000000e+00
  0.000000000000e+00 0.000000000000e+00 0.000000000000e+00
  0.000000000000e+00 0.000000000000e+00 0.000000000000e+00
  0.000000000000e+00 0.000000000000e+00 0.000000000000e+00
  0.000000000000e+00 0.000000000000e+00 0.000000000000e+00
  0.000000000000e+00 0.000000000000e+00 0.000000000000e+00
  0.000000000000e+00 0.000000000000e+00 0.000000000000e+00
  0.000000000000e+00 0.000000000000e+00 0.000000000000e+00
  0.000000000000e+00 0.000000000000e+00 0.000000000000e+00
  0.000000000000e+00 0.000000000000e+00 0.000000000000e+00
  0.000000000000e+00 0.000000000000e+00 0.000000000000e+00
  0.000000000000e+00 0.000000000000e+00 0.000000000000e+00
  0.000000000000e+00 0.000000000000e+00 0.000000000000e+00
  0.000000000000e+00 0.000000000000e+00 0.000000000000e+00
  0.000000000000e+00 0.000000000000e+00 0.000000000000e+00
  0.000000000000e+00 0.000000000000e+00 0.000000000000e+00
  0.000000000000e+00 0.000000000000e+00 0.000000000000e+00
  0.000000000000e+00 0.000000000000e+00 0.000000000000e+00
  0.000000000000e+00 0.000000000000e+00 0.000000000000e+00
  0.000000000000e+00 0.000000000000e+00 0.000000000000e+00
  0.000000000000e+00 0.000000000000e+00 0.000000000000e+00
  0.000000000000e+00 0.000000000000e+00 0.000000000000e+00
  0.000000000000e+00 0.000000000000e+00 0.000000000000e+00
  0.000000000000e+00 0.000000000000e+00 0.000000000000e+00
  0.000000000000e+00 0.000000000000e+00 0.000000000000e+00
  0.000000000000e+00 0.000000000000e+00 0.000000000000e+00
  0.000000000000e+00 0.000000000000e+00 0.000000000000e+00
  0.000000000000e+00 0.000000000000e+00 0.000000000000e+00
  0.000000000000e+00 0.000000000000e+00 0.000000000000e+00
  0.000000000000e+00 0.000000000000e+00 0.000000000000e+00
  0.000000000000e+00 0.000000000000e+00 0.000000000000e+00
  0.000000000000e+00 0.000000000000e+00 0.000000000000e+00
  0.000000000000e+00 0.000000000000e+00 0.000000000000e+00
  0.000000000000e+00 0.000000000000e+00 0.000000000000e+00
  0.000000000000e+00 0.000000000000e+00 0.000000000000e+00
  0.000000000000e+00 0.000000000000e+00 0.000000000000e+00
  0.000000000000e+00 0.000000000000e+00 0.000000000000e+00
  0.000000000000e+00 0.000000000000e+00 0.000000000000e+00
  0.000000000000e+00 0.000000000000e+00 0.000000000000e+00
  0.000000000000e+00 0.000000000000e+00 0.000000000000e+00
  0.000000000000e+00 0.000000000000e+00 0.000000000000e+00
  0.000000000000e+00 0.000000000000e+00 0.000000000000e+00
  0.000000000000e+00 0.000000000000e+00 0.000000000000e+00
  0.000000000000e+00 0.000000000000e+00 0.000000000000e+00
  0.000000000000e+00 0.000000000000e+00 0.000000000000e+00
  0.000000000000e+00 0.000000000000e+00 0.000000000000e+00
  0.000000000000e+00 0.000000000000e+00 0.000000000000e+00
  0.000000000000e+00 0.000000000000e+00 0.000000000000e+00
  -2.862555674397e-03 2.862555674397e-03 0.000000000000e+00
  -3.643999791200e-03 1.220064021585e-02 0.000000000000e+00
  -5.139745805797e-03 3.185013310170e-02 0.000000000000e+00
  -7.208670192099e-03 6.675801374970e-02 0.000000000000e+00
  -9.640065774917e-03 1.186688461095e-01 0.000000000000e+00
  -1.218723310924e-02 1.849566562361e-01 0.000000000000e+00
  -1.462825159815e-02 2.585395215497e-01 0.000000000000e+00
  -1.682839429703e-02 3.293405695058e-01 0.000000000000e+00
  -1.877128355932e-02 3.869745655926e-01 0.000000000000e+00
  -2.054101185228e-02 4.236522346390e-01 0.000000000000e+00
  -2.226386386491e-02 4.361667846143e-01 0.000000000000e+00
  -2.403780900892e-02 4.263013672333e-01 0.000000000000e+00
  -2.587985262177e-02 3.997290375423e-01 0.000000000000e+00
  -2.770819657744e-02 3.640415936049e-01 0.000000000000e+00
  -2.935864679507e-02 3.267118505196e-01 0.000000000000e+00
  -3.062251859315e-02 2.936034025080e-01 0.000000000000e+00
  -3.128998616516e-02 2.682843093771e-01 0.000000000000e+00
  -3.118645533644e-02 2.520712481079e-01 0.000000000000e+00
  -3.019600577200e-02 2.445401096808e-01 0.000000000000e+00
  -2.827172313314e-02 2.442042674070e-01 0.000000000000e+00
  -2.543601756410e-02 2.491347847972e-01 0.000000000000e+00
  -2.177470993720e-02 2.574085810669e-01 0.000000000000e+00
  -1.742774217501e-02 2.673666808638e-01 0.000000000000e+00
  -1.257802804566e-02 2.777210795544e-01 0.000000000000e+00
  -7.438992402952e-03 2.875669794379e-01 0.000000000000e+00
  -2.240981051877e-03 2.963507181068e-01 0.000000000000e+00
  2.783177361008e-03 3.038269349892e-01 0.000000000000e+00
  7.412882672163e-03 3.100212413402e-01 0.000000000000e+00
  1.145393696385e-02 3.152012562857e-01 0.000000000000e+00
  1.475134024792e-02 3.198496031718e-01 0.000000000000e+00
  1.720005374909e-02 3.246257823241e-01 0.000000000000e+00
  1.875335758075e-02 3.302986382452e-01 0.000000000000e+00
  1.942858816629e-02 3.376281610111e-01 0.000000000000e+00
  1.930981045235e-02 3.471777444978e-01 0.000000000000e+00
  1.854617004843e-02 3.590510894605e-01 0.000000000000e+00
  1.734342386624e-02 3.725772636477e-01 0.000000000000e+00
  1.594516456171e-02 3.860137480480e-01 0.000000000000e+00
  1.460064997342e-02 3.963897286771e-01 0.000000000000e+00
  1.351894218118e-02 3.996456212822e-01 0.000000000000e+00
  1.281471432901e-02 3.912079668393e-01 0.000000000000e+00
  1.245917228021e-02 3.670451862066e-01 0.000000000000e+00
  1.225785634365e-02 3.250714895364e-01 0.000000000000e+00
  1.188025805900e-02 2.665303624627e-01 0.000000000000e+00
  1.095632420654e-02 1.967796457017e-01 0.000000000000e+00
  9.227362724827e-03 1.248641906360e-01 0.000000000000e+00
  6.700935828328e-03 6.154945892710e-02 0.000000000000e+00
  3.733215863827e-03 1.611934043785e-02 0.000000000000e+00
  9.738273530551e-04 -7.016313712833e-03 0.000000000000e+00
  -8.346172043116e-04 -1.044013322782e-02 0.000000000000e+00
  -1.131580700840e-03 -3.395189425448e-03 0.000000000000e+00
  2.350009266985e-04 1.169068611070e-03 0.000000000000e+00
  2.942095995789e-03 -8.904072493329e-03 0.000000000000e+00
  6.319299308864e-03 -4.079561830915e-02 0.000000000000e+00
  9.607896022462e-03 -9.454984931937e-02 0.000000000000e+00
  1.222760840187e-02 -1.636380688204e-01 0.000000000000e+00
  1.393649279531e-02 -2.376946473594e-01 0.000000000000e+00
  1.483568255700e-02 -3.060522941742e-01 0.000000000000e+00
  1.524886910508e-02 -3.606592409299e-01 0.000000000000e+00
  1.555271166316e-02 -3.975431910626e-01 0.000000000000e+00
  1.603318572734e-02 -4.167530118167e-01 0.000000000000e+00
  1.680922695306e-02 -4.212573801991e-01 0.000000000000e+00
  1.782627103848e-02 -4.154554074287e-01 0.000000000000e+00
  1.889792860640e-02 -4.038355721331e-01 0.000000000000e+00
  1.976801578918e-02 -3.900749173953e-01 0.000000000000e+00
  2.017104507996e-02 -3.766376402868e-01 0.000000000000e+00
  1.987897478500e-02 -3.647772776305e-01 0.000000000000e+00
  1.873050518218e-02 -3.547814994038e-01 0.000000000000e+00
  1.664464618541e-02 -3.463050385175e-01 0.000000000000e+00
  1.362257837804e-02 -3.386829723890e-01 0.000000000000e+00
  9.741794193226e-03 -3.311715787672e-01 0.000000000000e+00
  5.145366636300e-03 -3.231064366743e-01 0.000000000000e+00
  2.804154439982e-05 -3.139911049478e-01 0.000000000000e+00
  -5.379782405207e-03 -3.035382364269e-01 0.000000000000e+00
  -1.082924783290e-02 -2.916848198508e-01 0.000000000000e+00
  -1.607035075069e-02 -2.785994359664e-01 0.000000000000e+00
  -2.086821587834e-02 -2.646945198636e-01 0.000000000000e+00
  -2.501727707629e-02 -2.506508235695e-01 0.000000000000e+00
  -2.835266057755e-02 -2.374530302566e-01 0.000000000000e+00
  -3.075861943141e-02 -2.264228607458e-01 0.000000000000e+00
  -3.217442303598e-02 -2.192187867964e-01 0.000000000000e+00
  -3.259838371829e-02 -2.177532832684e-01 0.000000000000e+00
  -3.209040013651e-02 -2.239685506241e-01 0.000000000000e+00
  -3.077233820186e-02 -2.394241387525e-01 0.000000000000e+00
  -2.882395281695e-02 -2.646999081037e-01 0.000000000000e+00
  -2.647066874745e-02 -2.987101008943e-01 0.000000000000e+00
  -2.395966229388e-02 -3.381394000819e-01 0.000000000000e+00
  -2.152348930846e-02 -3.772989768198e-01 0.000000000000e+00
  -1.933618378469e-02 -4.086896210440e-01 0.000000000000e+00
  -1.747373881384e-02 -4.243932148977e-01 0.000000000000e+00
  -1.589558921170e-02 -4.180938758200e-01 0.000000000000e+00
  -1.446151837529e-02 -3.871537895561e-01 0.000000000000e+00
  -1.298659205141e-02 -3.339305548805e-01 0.000000000000e+00
  -1.131833908325e-02 -2.656328419390e-01 0.000000000000e+00
  -9.405382872884e-03 -1.925373347353e-01 0.000000000000e+00
  -7.326648855883e-03 -1.251291715401e-01 0.000000000000e+00
  -5.268736328229e-03 -7.126011238181e-02 0.000000000000e+00
  -3.465973201181e-03 -3.438069455509e-02 0.000000000000e+00
  -2.134896752829e-03 -1.329648007886e-02 0.000000000000e+00
  -1.430488006577e-03 -3.140016745559e-03 0.000000000000e+00
  0.000000000000e+00 0.000000000000e+00 0.000000000000e+00
  0.000000000000e+00 0.000000000000e+00 0.000000000000e+00
  -1.220064021585e-02 3.643999791200e-03 0.000000000000e+00
  -1.447926982962e-02 1.447926982962e-02 0.000000000000e+00
  -1.882908464768e-02 3.541706432059e-02 0.000000000000e+00
  -2.481814414756e-02 7.124906641699e-02 0.000000000000e+00
  -3.180773199172e-02 1.235987768692e-01 0.000000000000e+00
  -3.905584968232e-02 1.898220105013e-01 0.000000000000e+00
  -4.589930779902e-02 2.629586438901e-01 0.000000000000e+00
  -5.193905590105e-02 3.331613379664e-01 0.000000000000e+00
  -5.713239874511e-02 3.902900292384e-01 0.000000000000e+00
  -6.174029192833e-02 4.267143924693e-01 0.000000000000e+00
  -6.615530461627e-02 4.392424914845e-01 0.000000000000e+00
  -7.069308838548e-02 4.295373892763e-01 0.000000000000e+00
  -7.543587442841e-02 4.030778451551e-01 0.000000000000e+00
  -8.017799696287e-02 3.672632524823e-01 0.000000000000e+00
  -8.447194093255e-02 3.294345858295e-01 0.000000000000e+00
  -8.773747762627e-02 2.954100756898e-01 0.000000000000e+00
  -8.938667205489e-02 2.687942981959e-01 0.000000000000e+00
  -8.892828650044e-02 2.509993429059e-01 0.000000000000e+00
  -8.603426205564e-02 2.417275408736e-01 0.000000000000e+00
  -8.056807215338e-02 2.396263636732e-01 0.000000000000e+00
  -7.258443264466e-02 2.428933434533e-01 0.000000000000e+00
  -6.231182693941e-02 2.497161090786e-01 0.000000000000e+00
  -5.012645168665e-02 2.585268098372e-01 0.000000000000e+00
  -3.652205080667e-02 2.681068355718e-01 0.000000000000e+00
  -2.207703948678e-02 2.775971764579e-01 0.000000000000e+00
  -7.419050896221e-03 2.864645211452e-01 0.000000000000e+00
  6.812803553059e-03 2.944571190887e-01 0.000000000000e+00
  2.000686170340e-02 3.015672937792e-01 0.000000000000e+00
  3.161720081581e-02 3.080038104426e-01 0.000000000000e+00
  4.119926039260e-02 3.141675861541e-01 0.000000000000e+00
  4.844112625950e-02 3.206172199738e-01 0.000000000000e+00
  5.318939334217e-02 3.280056296813e-01 0.000000000000e+00
  5.546873358486e-02 3.369665987472e-01 0.000000000000e+00
  5.549338572114e-02 3.479334323402e-01 0.000000000000e+00
  5.366625622000e-02 3.608861715247e-01 0.000000000000e+00
  5.055764693101e-02 3.750535370575e-01 0.000000000000e+00
  4.685286508931e-02 3.886405157895e-01 0.000000000000e+00
  4.325938087237e-02 3.987009597492e-01 0.000000000000e+00
  4.037277248959e-02 4.013027063982e-01 0.000000000000e+00
  3.851776626734e-02 3.921101158172e-01 0.000000000000e+00
  3.760473009145e-02 3.674116154810e-01 0.000000000000e+00
  3.706604176082e-02 3.254450645665e-01 0.000000000000e+00
  3.594482266453e-02 2.676556048614e-01 0.000000000000e+00
  3.317816449639e-02 1.993449953819e-01 0.000000000000e+00
  2.803598491743e-02 1.291699820835e-01 0.000000000000e+00
  2.056746976605e-02 6.723860959987e-02 0.000000000000e+00
  1.183382906108e-02 2.213155050748e-02 0.000000000000e+00
  3.741913324586e-03 -2.177219467691e-03 0.000000000000e+00
  -1.540738122139e-03 -8.188131413105e-03 0.000000000000e+00
  -2.383417968026e-03 -4.507547859452e-03 0.000000000000e+00
  1.653290650585e-03 -3.121863184413e-03 0.000000000000e+00
  9.625535533583e-03 -1.529248065677e-02 0.000000000000e+00
  1.957577365327e-02 -4.773465160803e-02 0.000000000000e+00
  2.928267128252e-02 -1.006063104124e-01 0.000000000000e+00
  3.703541664384e-02 -1.679540655315e-01 0.000000000000e+00
  4.210168187368e-02 -2.401538003430e-01 0.000000000000e+00
  4.474783618949e-02 -3.071384853414e-01 0.000000000000e+00
  4.589503381824e-02 -3.611334340093e-01 0.000000000000e+00
  4.662965582638e-02 -3.981074626116e-01 0.000000000000e+00
  4.778543253040e-02 -4.178249910883e-01 0.000000000000e+00
  4.971901097224e-02 -4.228950206367e-01 0.000000000000e+00
  5.228871550127e-02 -4.174045156370e-01 0.000000000000e+00
  5.497444400300e-02 -4.056438500171e-01 0.000000000000e+00
  5.705770336617e-02 -3.912199860727e-01 0.000000000000e+00
  5.779710210629e-02 -3.766349996504e-01 0.000000000000e+00
  5.656291584197e-02 -3.632536617140e-01 0.000000000000e+00
  5.291962317156e-02 -3.515133530508e-01 0.000000000000e+00
  4.666170920848e-02 -3.412294119127e-01 0.000000000000e+00
  3.781508165631e-02 -3.318899036354e-01 0.000000000000e+00
  2.661647734804e-02 -3.228852590283e-01 0.000000000000e+00
  1.347986164739e-02 -3.136597131559e-01 0.000000000000e+00
  -1.044746501308e-03 -3.037958952258e-01 0.000000000000e+00
  -1.631674304070e-02 -2.930536256600e-01 0.000000000000e+00
  -3.165211050419e-02 -2.813845977266e-01 0.000000000000e+00
  -4.636962653750e-02 -2.689410391396e-01 0.000000000000e+00
  -5.983333458853e-02 -2.560913435118e-01 0.000000000000e+00
  -7.148886260119e-02 -2.434494107107e-01 0.000000000000e+00
  -8.089219269930e-02 -2.319157295161e-01 0.000000000000e+00
  -8.773098296739e-02 -2.227154123645e-01 0.000000000000e+00
  -9.183998543402e-02 -2.174014291066e-01 0.000000000000e+00
  -9.321269015260e-02 -2.177739755573e-01 0.000000000000e+00
  -9.201019363165e-02 -2.256583384379e-01 0.000000000000e+00
  -8.856495790184e-02 -2.424976486031e-01 0.000000000000e+00
  -8.337221804193e-02 -2.687675234979e-01 0.000000000000e+00
  -7.705766738717e-02 -3.033103202244e-01 0.000000000000e+00
  -7.031046522938e-02 -3.427973893632e-01 0.000000000000e+00
  -6.377901072693e-02 -3.816086150264e-01 0.000000000000e+00
  -5.794384399615e-02 -4.124024550919e-01 0.000000000000e+00
  -5.300278635727e-02 -4.274838834595e-01 0.000000000000e+00
  -4.881736421551e-02 -4.207667790021e-01 0.000000000000e+00
  -4.496304889442e-02 -3.897692725315e-01 0.000000000000e+00
  -4.089099581142e-02 -3.368620513120e-01 0.000000000000e+00
  -3.615491926146e-02 -2.691056750256e-01 0.000000000000e+00
  -3.061266997829e-02 -1.965197071422e-01 0.000000000000e+00
  -2.451180007327e-02 -1.293264030552e-01 0.000000000000e+00
  -1.842234724614e-02 -7.521024622149e-02 0.000000000000e+00
  -1.305884512707e-02 -3.759682596151e-02 0.000000000000e+00
  -9.084254147301e-03 -1.538601610056e-02 0.000000000000e+00
  -6.976322154237e-03 -3.862821463180e-03 0.000000000000e+00
  0.000000000000e+00 0.000000000000e+00 0.000000000000e+00
  0.000000000000e+00 0.000000000000e+00 0.000000000000e+00
  -3.185013310170e-02 5.139745805797e-03 0.000000000000e+00
  -3.541706432059e-02 1.882908464768e-02 0.000000000000e+00
  -4.218912925120e-02 4.218912925120e-02 0.000000000000e+00
  -5.142508043294e-02 7.970201216799e-02 0.000000000000e+00
  -6.204757700155e-02 1.327579155310e-01 0.000000000000e+00
  -7.282337537515e-02 1.986867879038e-01 0.000000000000e+00
  -8.266484903948e-02 2.707787982687e-01 0.000000000000e+00
  -9.093141222544e-02 3.396474948758e-01 0.000000000000e+00
  -9.757802472476e-02 3.956438276724e-01 0.000000000000e+00
  -1.030694922896e-01 4.314599547835e-01 0.000000000000e+00
  -1.081022847620e-01 4.439447343307e-01 0.000000000000e+00
  -1.132666017307e-01 4.345372471680e-01 0.000000000000e+00
  -1.187905944915e-01 4.083447660671e-01 0.000000000000e+00
  -1.244472845375e-01 3.723951441509e-01 0.000000000000e+00
  -1.296222254991e-01 3.337715790922e-01 0.000000000000e+00
  -1.334820540457e-01 2.981984476674e-01 0.000000000000e+00
  -1.351681608104e-01 2.693412274116e-01 0.000000000000e+00
  -1.339570514089e-01 2.487829187343e-01 0.000000000000e+00
  -1.293600793231e-01 2.364529685146e-01 0.000000000000e+00
  -1.211630774448e-01 2.312377442515e-01 0.000000000000e+00
  -1.094221664371e-01 2.315574123586e-01 0.000000000000e+00
  -9.443512007974e-02 2.357923881107e-01 0.000000000000e+00
  -7.670275642581e-02 2.425327918983e-01 0.000000000000e+00
  -5.688764751025e-02 2.506813437151e-01 0.000000000000e+00
  -3.577190025631e-02 2.594619097408e-01 0.000000000000e+00
  -1.421315578112e-02 2.683830547966e-01 0.000000000000e+00
  6.902208559015e-03 2.771913666479e-01 0.000000000000e+00
  2.670859671234e-02 2.858325999163e-01 0.000000000000e+00
  4.441214656777e-02 2.944246153378e-01 0.000000000000e+00
  5.934121535482e-02 3.032356528954e-01 0.000000000000e+00
  7.099456281190e-02 3.126539399092e-01 0.000000000000e+00
  7.908567048828e-02 3.231295349883e-01 0.000000000000e+00
  8.358121681758e-02 3.350678068711e-01 0.000000000000e+00
  8.472956346642e-02 3.486592254369e-01 0.000000000000e+00
  8.307059090600e-02 3.636464805003e-01 0.000000000000e+00
  7.941226906986e-02 3.790601592261e-01 0.000000000000e+00
  7.475528687292e-02 3.929956576919e-01 0.000000000000e+00
  7.015004872090e-02 4.025445402684e-01 0.000000000000e+00
  6.648517938770e-02 4.040106036767e-01 0.000000000000e+00
  6.423534197230e-02 3.935070622971e-01 0.000000000000e+00
  6.323538427133e-02 3.679276630480e-01 0.000000000000e+00
  6.258492960522e-02 3.261181602243e-01 0.000000000000e+00
  6.079641101670e-02 2.698922471790e-01 0.000000000000e+00
  5.624677847904e-02 2.044246441214e-01 0.000000000000e+00
  4.786392025678e-02 1.376153715472e-01 0.000000000000e+00
  3.581184432323e-02 7.831381165387e-02 0.000000000000e+00
  2.183276633895e-02 3.376906757739e-02 0.000000000000e+00
  8.967304813075e-03 7.142641126342e-03 0.000000000000e+00
  6.327016795841e-04 -3.890737095320e-03 0.000000000000e+00
  -6.175062070252e-04 -6.712054216403e-03 0.000000000000e+00
  5.894974437103e-03 -1.146654598940e-02 0.000000000000e+00
  1.867844234364e-02 -2.770351067911e-02 0.000000000000e+00
  3.464366716506e-02 -6.123908469904e-02 0.000000000000e+00
  5.026636029469e-02 -1.124314683683e-01 0.000000000000e+00
  6.279458008961e-02 -1.764098731059e-01 0.000000000000e+00
  7.099088085776e-02 -2.449605591909e-01 0.000000000000e+00
  7.518495419489e-02 -3.091719545843e-01 0.000000000000e+00
  7.675691463430e-02 -3.618191232538e-01 0.000000000000e+00
  7.738298857409e-02 -3.987824696916e-01 0.000000000000e+00
  7.838085207632e-02 -4.193036245337e-01 0.000000000000e+00
  8.034985877462e-02 -4.253189725878e-01 0.000000000000e+00
  8.312857840484e-02 -4.203289880407e-01 0.000000000000e+00
  8.597683181413e-02 -4.082533596663e-01 0.000000000000e+00
  8.785519931024e-02 -3.925721033809e-01 0.000000000000e+00
  8.769782690936e-02 -3.758649087461e-01 0.000000000000e+00
  8.461879576283e-02 -3.597105352481e-01 0.000000000000e+00
  7.803363581454e-02 -3.448280269224e-01 0.000000000000e+00
  6.770502864915e-02 -3.313282169266e-01 0.000000000000e+00
  5.373389371635e-02 -3.189733361441e-01 0.000000000000e+00
  3.651749243140e-02 -3.073868209303e-01 0.000000000000e+00
  1.669068387153e-02 -2.961947269953e-01 0.000000000000e+00
  -4.939805403729e-03 -2.851057839633e-01 0.000000000000e+00
  -2.746254113572e-02 -2.739490046515e-01 0.000000000000e+00
  -4.992643111195e-02 -2.626899612956e-01 0.000000000000e+00
  -7.140074899228e-02 -2.514438416570e-01 0.000000000000e+00
  -9.102751358212e-02 -2.404980683535e-01 0.000000000000e+00
  -1.080643459238e-01 -2.303503255146e-01 0.000000000000e+00
  -1.219174244789e-01 -2.217584060590e-01 0.000000000000e+00
  -1.321661781188e-01 -2.157851919136e-01 0.000000000000e+00
  -1.385831082009e-01 -2.138057170088e-01 0.000000000000e+00
  -1.411524062135e-01 -2.174276849239e-01 0.000000000000e+00
  -1.400885370177e-01 -2.282709947881e-01 0.000000000000e+00
  -1.358500179091e-01 -2.475687470913e-01 0.000000000000e+00
  -1.291353543766e-01 -2.756038284021e-01 0.000000000000e+00
  -1.208413586740e-01 -3.110825616776e-01 0.000000000000e+00
  -1.119649406644e-01 -3.506487680773e-01 0.000000000000e+00
  -1.034434028930e-01 -3.888102285861e-01 0.000000000000e+00
  -9.595603334745e-02 -4.185233778086e-01 0.000000000000e+00
  -8.974361407956e-02 -4.325164376496e-01 0.000000000000e+00
  -8.452498923008e-02 -4.251382718032e-01 0.000000000000e+00
  -7.957917452775e-02 -3.941979097538e-01 0.000000000000e+00
  -7.400535678151e-02 -3.420792849190e-01 0.000000000000e+00
  -6.708660712452e-02 -2.755432676255e-01 0.000000000000e+00
  -5.861284406830e-02 -2.040981268816e-01 0.000000000000e+00
  -4.901794083730e-02 -1.374437564518e-01 0.000000000000e+00
  -3.927110819767e-02 -8.292917829166e-02 0.000000000000e+00
  -3.058746350753e-02 -4.392504070055e-02 0.000000000000e+00
  -2.410400310775e-02 -1.951585274106e-02 0.000000000000e+00
  -2.065031838454e-02 -5.294601538956e-03 0.000000000000e+00
  0.000000000000e+00 0.000000000000e+00 0.000000000000e+00
  0.000000000000e+00 0.000000000000e+00 0.000000000000e+00
  -6.675801374970e-02 7.208670192099e-03 0.000000000000e+00
  -7.124906641699e-02 2.481814414756e-02 0.000000000000e+00
  -7.970201216799e-02 5.142508043294e-02 0.000000000000e+00
  -9.105403714587e-02 9.105403714587e-02 0.000000000000e+00
  -1.037946152566e-01 1.447689652325e-01 0.000000000000e+00
  -1.162300412588e-01 2.098869625781e-01 0.000000000000e+00
  -1.268981276394e-01 2.800881836393e-01 0.000000000000e+00
  -1.349717733608e-01 3.466783184126e-01 0.000000000000e+00
  -1.404533504971e-01 4.007411937711e-01 0.000000000000e+00
  -1.440566023409e-01 4.354573080934e-01 0.000000000000e+00
  -1.468329269459e-01 4.477564980981e-01 0.000000000000e+00
  -1.497173690094e-01 4.387742424329e-01 0.000000000000e+00
  -1.531817605660e-01 4.130961551194e-01 0.000000000000e+00
  -1.571021184041e-01 3.772208029826e-01 0.000000000000e+00
  -1.608385382311e-01 3.378572810490e-01 0.000000000000e+00
  -1.634486598618e-01 3.005826958879e-01 0.000000000000e+00
  -1.639341289728e-01 2.691285550667e-01 0.000000000000e+00
  -1.614424763929e-01 2.452928290978e-01 0.000000000000e+00
  -1.553886573604e-01 2.292922670328e-01 0.000000000000e+00
  -1.454981272831e-01 2.203109137777e-01 0.000000000000e+00
  -1.317946934555e-01 2.170398979971e-01 0.000000000000e+00