# vtk DataFile Version 3.0
Karman Output
ASCII
DATASET RECTILINEAR_GRID
DIMENSIONS 101 101 1
X_COORDINATES 101 float
   0.000000000000e+00   9.900990099010e-03   1.980198019802e-02   2.970297029703e-02   3.960396039604e-02   4.950495049505e-02   5.940594059406e-02   6.930693069307e-02   7.920792079208e-02   8.910891089109e-02   9.900990099010e-02   1.089108910891e-01   1.188118811881e-01   1.287128712871e-01   1.386138613861e-01   1.485148514851e-01   1.584158415842e-01   1.683168316832e-01   1.782178217822e-01   1.881188118812e-01   1.980198019802e-01   2.079207920792e-01   2.178217821782e-01   2.277227722772e-01   2.376237623762e-01   2.475247524752e-01   2.574257425743e-01   2.673267326733e-01   2.772277227723e-01   2.871287128713e-01   2.970297029703e-01   3.069306930693e-01   3.168316831683e-01   3.267326732673e-01   3.366336633663e-01   3.465346534653e-01   3.564356435644e-01   3.663366336634e-01   3.762376237624e-01   3.861386138614e-01   3.960396039604e-01   4.059405940594e-01   4.158415841584e-01   4.257425742574e-01   4.356435643564e-01   4.455445544554e-01   4.554455445545e-01   4.653465346535e-01   4.752475247525e-01   4.851485148515e-01   4.950495049505e-01   5.049504950495e-01   5.148514851485e-01   5.247524752475e-01   5.346534653465e-01   5.445544554455e-01   5.544554455446e-01   5.643564356436e-01   5.742574257426e-01   5.841584158416e-01   5.940594059406e-01   6.039603960396e-01   6.138613861386e-01   6.237623762376e-01   6.336633663366e-01   6.435643564356e-01   6.534653465347e-01   6.633663366337e-01   6.732673267327e-01   6.831683168317e-01   6.930693069307e-01   7.029702970297e-01   7.128712871287e-01   7.227722772277e-01   7.326732673267e-01   7.425742574257e-01   7.524752475248e-01   7.623762376238e-01   7.722772277228e-01   7.821782178218e-01   7.920792079208e-01   8.019801980198e-01   8.118811881188e-01   8.217821782178e-01   8.316831683168e-01   8.415841584158e-01   8.514851485149e-01   8.613861386139e-01   8.712871287129e-01   8.811881188119e-01   8.910891089109e-01   9.009900990099e-01   9.108910891089e-01   9.207920792079e-01   9.306930693069e-01   9.405940594059e-01   9.504950495050e-01   9.603960396040e-01   9.702970297030e-01   9.801980198020e-01   9.900990099010e-01
Y_COORDINATES 101 float
   0.000000000000e+00   9.900990099010e-03   1.980198019802e-02   2.970297029703e-02   3.960396039604e-02   4.950495049505e-02   5.940594059406e-02   6.930693069307e-02   7.920792079208e-02   8.910891089109e-02   9.900990099010e-02   1.089108910891e-01   1.188118811881e-01   1.287128712871e-01   1.386138613861e-01   1.485148514851e-01   1.584158415842e-01   1.683168316832e-01   1.782178217822e-01   1.881188118812e-01   1.980198019802e-01   2.079207920792e-01   2.178217821782e-01   2.277227722772e-01   2.376237623762e-01   2.475247524752e-01   2.574257425743e-01   2.673267326733e-01   2.772277227723e-01   2.871287128713e-01   2.970297029703e-01   3.069306930693e-01   3.168316831683e-01   3.267326732673e-01   3.366336633663e-01   3.465346534653e-01   3.564356435644e-01   3.663366336634e-01   3.762376237624e-01   3.861386138614e-01   3.960396039604e-01   4.059405940594e-01   4.158415841584e-01   4.257425742574e-01   4.356435643564e-01   4.455445544554e-01   4.554455445545e-01   4.653465346535e-01   4.752475247525e-01   4.851485148515e-01   4.950495049505e-01   5.049504950495e-01   5.148514851485e-01   5.247524752475e-01   5.346534653465e-01   5.445544554455e-01   5.544554455446e-01   5.643564356436e-01   5.742574257426e-01   5.841584158416e-01   5.940594059406e-01   6.039603960396e-01   6.138613861386e-01   6.237623762376e-01   6.336633663366e-01   6.435643564356e-01   6.534653465347e-01   6.633663366337e-01   6.732673267327e-01   6.831683168317e-01   6.930693069307e-01   7.029702970297e-01   7.128712871287e-01   7.227722772277e-01   7.326732673267e-01   7.425742574257e-01   7.524752475248e-01   7.623762376238e-01   7.722772277228e-01   7.821782178218e-01   7.920792079208e-01   8.019801980198e-01   8.118811881188e-01   8.217821782178e-01   8.316831683168e-01   8.415841584158e-01   8.514851485149e-01   8.613861386139e-01   8.712871287129e-01   8.811881188119e-01   8.910891089109e-01   9.009900990099e-01   9.108910891089e-01   9.207920792079e-01   9.306930693069e-01   9.405940594059e-01   9.504950495050e-01   9.603960396040e-01   9.702970297030e-01   9.801980198020e-01   9.900990099010e-01
Z_COORDINATES 1 float
  0.000000000000e+00
POINT_DATA 10201
VECTORS E_field float
  0.000000000000e+00 0.000000000000e+00 0.000000000000e+00
  0.000000000000e+00 0.000000000000e+00 0.000000000000e+00
  0.000000000000e+00 0.000000000000e+00 0.000000000000e+00
  0.000000000000e+00 0.000000000000e+00 0.000000000000e+00
  0.000000000000e+00 0.000000000000e+00 0.000000000000e+00
  0.000000000000e+00 0.000000000000e+00 0.000000000000e+00
  0.000000000000e+00 0.000000000000e+00 0.000000000000e+00
  0.000000000000e+00 0.000000000000e+00 0.000000000000e+00
  0.000000000000e+00 0.000000000000e+00 0.000000000000e+00
  0.000000000000e+00 0.000000000000e+00 0.000000000000e+00
  0.000000000000e+00 0.000000000000e+00 0.000000000000e+00
  0.000000000000e+00 0.000000000000e+00 0.000000000000e+00
  0.000000000000e+00 0.000000000000e+00 0.000000000000e+00
  0.000000000000e+00 0.000000000000e+00 0.000000000000e+00
  0.000000000000e+00 0.000000000000e+00 0.000000000000e+00
  0.000000000000e+00 0.000000000000e+00 0.000000000000e+00
  0.000000000000e+00 0.000000000000e+00 0.000000000000e+00
  0.000000000000e+00 0.000000000000e+00 0.000000000000e+00
  0.000000000000e+00 0.000000000000e+00 0.000000000000e+00
  0.000000000000e+00 0.000000000000e+00 0.000000000000e+00
  0.000000000000e+00 0.000000000000e+00 0.000000000000e+00
  0.000000000000e+00 0.000000000000e+00 0.000000000000e+00
  0.000000000000e+00 0.000000000000e+00 0.000000000000e+00
  0.000000000000e+00 0.000000000000e+00 0.000000000000e+00
  0.000000000000e+00 0.000000000000e+00 0.000000000000e+00
  0.000000000000e+00 0.000000000000e+00 0.000000000000e+00
  0.000000000000e+00 0.000000000000e+00 0.000000000000e+00
  0.000000000000e+00 0.000000000000e+00 0.000000000000e+00
  0.000000000000e+00 0.000000000000e+00 0.000000000000e+00
  0.000000000000e+00 0.000000000000e+00 0.000000000000e+00
  0.000000000000e+00 0.000000000000e+00 0.000000000000e+00
  0.000000000000e+00 0.000000000000e+00 0.000000000000e+00
  0.000000000000e+00 0.000000000000e+00 0.000000000000e+00
  0.000000000000e+00 0.000000000000e+00 0.000000000000e+00
  0.000000000000e+00 0.000000000000e+00 0.000000000000e+00
  0.000000000000e+00 0.000000000000e+00 0.000000000000e+00
  0.000000000000e+00 0.000000000000e+00 0.000000000000e+00
  0.000000000000e+00 0.000000000000e+00 0.000000000000e+00
  0.000000000000e+00 0.000000000000e+00 0.000000000000e+00
  0.000000000000e+00 0.000000000000e+00 0.000000000000e+00
  0.000000000000e+00 0.000000000000e+00 0.000000000000e+00
  0.000000000000e+00 0.000000000000e+00 0.000000000000e+00
  0.000000000000e+00 0.000000000000e+00 0.000000000000e+00
  0.000000000000e+00 0.000000000000e+00 0.000000000000e+00
  0.000000000000e+00 0.000000000000e+00 0.000000000000e+00
  0.000000000000e+00 0.000000000000e+00 0.000000000000e+00
  0.000000000000e+00 0.000000000000e+00 0.000000000000e+00
  0.000000000000e+00 0.000000000000e+00 0.000000000000e+00
  0.000000000000e+00 0.000000000000e+00 0.000000000000e+00
  0.000000000000e+00 0.000000000000e+00 0.000000000000e+00
  0.000000000000e+00 0.000000000000e+00 0.000000000000e+00
  0.000000000000e+00 0.000000000000e+00 0.000000000000e+00
  0.000000000000e+00 0.000000000000e+00 0.000000000000e+00
  0.000000000000e+00 0.000000000000e+00 0.000000000000e+00
  0.000000000000e+00 0.000000000000e+00 0.000000000000e+00
  0.000000000000e+00 0.000000000000e+00 0.000000000000e+00
  0.000000000000e+00 0.000000000000e+00 0.000000000000e+00
  0.000000000000e+00 0.000000000000e+00 0.000000000000e+00
  0.000000000000e+00 0.000000000000e+00 0.000000000000e+00
  0.000000000000e+00 0.000000000000e+00 0.000000000000e+00
  0.000000000000e+00 0.000000000000e+00 0.000000000000e+00
  0.000000000000e+00 0.000000000000e+00 0.000000000000e+00
  0.000000000000e+00 0.000000000000e+00 0.000000000000e+00
  0.000000000000e+00 0.000000000000e+00 0.000000000000e+00
  0.000000000000e+00 0.000000000000e+00 0.000000000000e+00
  0.000000000000e+00 0.000000000000e+00 0.000000000000e+00
  0.000000000000e+00 0.000000000000e+00 0.000000000000e+00
  0.000000000000e+00 0.000000000000e+00 0.000000000000e+00
  0.000000000000e+00 0.000000000000e+00 0.000000000000e+00
  0.000000000000e+00 0.000000000000e+00 0.000000000000e+00
  0.000000000000e+00 0.000000000000e+00 0.000000000000e+00
  0.000000000000e+00 0.000000000000e+00 0.000000000000e+00
  0.000000000000e+00 0.000000000000e+00 0.000000000000e+00
  0.000000000000e+00 0.000000000000e+00 0.000000000000e+00
  0.000000000000e+00 0.000000000000e+00 0.000000000000e+00
  0.000000000000e+00 0.000000000000e+00 0.000000000000e+00
  0.000000000000e+00 0.000000000000e+00 0.000000000000e+00
  0.000000000000e+00 0.000000000000e+00 0.000000000000e+00
  0.000000000000e+00 0.000000000000e+00 0.000000000000e+00
  0.000000000000e+00 0.000000000000e+00 0.000000000000e+00
  0.000000000000e+00 0.000000000000e+00 0.000000000000e+00
  0.000000000000e+00 0.000000000000e+00 0.000000000000e+00
  0.000000000000e+00 0.000000000000e+00 0.000000000000e+00
  0.000000000000e+00 0.000000000000e+00 0.000000000000e+00
  0.000000000000e+00 0.000000000000e+00 0.000000000000e+00
  0.000000000000e+00 0.000000000000e+00 0.000000000000e+00
  0.000000000000e+00 0.000000000000e+00 0.000000000000e+00
  0.000000000000e+00 0.000000000000e+00 0.000000000000e+00
  0.000000000000e+00 0.000000000000e+00 0.000000000000e+00
  0.000000000000e+00 0.000000000000e+00 0.000000000000e+00
  0.000000000000e+00 0.000000000000e+00 0.000000000000e+00
  0.000000000000e+00 0.000000000000e+00 0.000000000000e+00
  0.000000000000e+00 0.000000000000e+00 0.000000000000e+00
  0.000000000000e+00 0.000000000000e+00 0.000000000000e+00
  0.000000000000e+00 0.000000000000e+00 0.000000000000e+00
  0.000000000000e+00 0.000000000000e+00 0.000000000000e+00
  0.000000000000e+00 0.000000000000e+00 0.000000000000e+00
  0.000000000000e+00 0.000000000000e+00 0.000000000000e+00
  0.000000000000e+00 0.000000000000e+00 0.000000000000e+00
  0.000000000000e+00 0.000000000000e+00 0.000000000000e+00
  0.000000000000e+00 0.000000000000e+00 0.000000000000e+00
  0.000000000000e+00 0.000000000000e+00 0.000000000000e+00
  -1.034908539872e-02 1.034908539872e-02 0.000000000000e+00
  -7.261601353926e-03 2.843956540473e-02 0.000000000000e+00
  -1.490227267995e-03 3.914912918629e-02 0.000000000000e+00
  6.209233837544e-03 3.894171032859e-02 0.000000000000e+00
  1.482841821862e-02 2.606659060531e-02 0.000000000000e+00
  2.324526915882e-02 7.602171909169e-04 0.000000000000e+00
  3.038427335966e-02 -3.491812420280e-02 0.000000000000e+00
  3.537182597510e-02 -7.755584052158e-02 0.000000000000e+00
  3.765731532897e-02 -1.230401966479e-01 0.000000000000e+00
  3.707577412926e-02 -1.672475933684e-01 0.000000000000e+00
  3.384105129287e-02 -2.066337155520e-01 0.000000000000e+00
  2.847516479661e-02 -2.386317481462e-01 0.000000000000e+00
  2.169401183299e-02 -2.618225900760e-01 0.000000000000e+00
  1.427735355503e-02 -2.758946709593e-01 0.000000000000e+00
  6.950373908387e-03 -2.814486273806e-01 0.000000000000e+00
  2.966849649396e-04 -2.797182628994e-01 0.000000000000e+00
  -5.288120660492e-03 -2.722757182788e-01 0.000000000000e+00
  -9.603688380241e-03 -2.607721237464e-01 0.000000000000e+00
  -1.262164943567e-02 -2.467430761486e-01 0.000000000000e+00
  -1.444409226682e-02 -2.314876874456e-01 0.000000000000e+00
  -1.525576687939e-02 -2.160146817497e-01 0.000000000000e+00
  -1.527943218714e-02 -2.010403755240e-01 0.000000000000e+00
  -1.474014121634e-02 -1.870206718335e-01 0.000000000000e+00
  -1.384076920222e-02 -1.742007279339e-01 0.000000000000e+00
  -1.274840803056e-02 -1.626698333114e-01 0.000000000000e+00
  -1.158961065116e-02 -1.524137410061e-01 0.000000000000e+00
  -1.045178160962e-02 -1.433612807300e-01 0.000000000000e+00
  -9.388022648587e-03 -1.354261227438e-01 0.000000000000e+00
  -8.423179133613e-03 -1.285479111534e-01 0.000000000000e+00
  -7.559485213286e-03 -1.227393987609e-01 0.000000000000e+00
  -6.780970926466e-03 -1.181469036923e-01 0.000000000000e+00
  -6.056660563721e-03 -1.151287028233e-01 0.000000000000e+00
  -5.343560194208e-03 -1.143474622144e-01 0.000000000000e+00
  -4.591390403495e-03 -1.168564194204e-01 0.000000000000e+00
  -3.751602789118e-03 -1.241355001966e-01 0.000000000000e+00
  -2.792771196418e-03 -1.380096791628e-01 0.000000000000e+00
  -1.722247386829e-03 -1.603727519836e-01 0.000000000000e+00
  -6.097988701804e-04 -1.926661761983e-01 0.000000000000e+00
  3.961264264576e-04 -2.351411715703e-01 0.000000000000e+00
  1.072067858357e-03 -2.860573288126e-01 0.000000000000e+00
  1.153379196509e-03 -3.410993756387e-01 0.000000000000e+00
  3.984489230807e-04 -3.933473795160e-01 0.000000000000e+00
  -1.331696476741e-03 -4.340372358608e-01 0.000000000000e+00
  -4.006154194558e-03 -4.540831517885e-01 0.000000000000e+00
  -7.397924397113e-03 -4.459970403564e-01 0.000000000000e+00
  -1.111270111291e-02 -4.056129962714e-01 0.000000000000e+00
  -1.466324123512e-02 -3.330672907807e-01 0.000000000000e+00
  -1.756192735804e-02 -2.328009848715e-01 0.000000000000e+00
  -1.940288569307e-02 -1.127580103363e-01 0.000000000000e+00
  -1.991916287230e-02 1.681134971462e-02 0.000000000000e+00
  -1.901683589762e-02 1.445941737221e-01 0.000000000000e+00
  -1.679282631416e-02 2.594130935894e-01 0.000000000000e+00
  -1.353462216086e-02 3.514752050889e-01 0.000000000000e+00
  -9.689580401204e-03 4.137063040802e-01 0.000000000000e+00
  -5.793288891548e-03 4.429451034149e-01 0.000000000000e+00
  -2.364129588229e-03 4.405592970179e-01 0.000000000000e+00
  2.066563528878e-04 4.121053091749e-01 0.000000000000e+00
  1.730570475803e-03 3.659992662605e-01 0.000000000000e+00
  2.236125497884e-03 3.115895178251e-01 0.000000000000e+00
  1.921407792157e-03 2.572588989689e-01 0.000000000000e+00
  1.069730478522e-03 2.091137233779e-01 0.000000000000e+00
  -3.672987113402e-05 1.705134900844e-01 0.000000000000e+00
  -1.177823874961e-03 1.423522892800e-01 0.000000000000e+00
  -2.220386258728e-03 1.237855791845e-01 0.000000000000e+00
  -3.112692544482e-03 1.130593857909e-01 0.000000000000e+00
  -3.861956658089e-03 1.081953846975e-01 0.000000000000e+00
  -4.508278763890e-03 1.074264311223e-01 0.000000000000e+00
  -5.103573556388e-03 1.093921724474e-01 0.000000000000e+00
  -5.698395014880e-03 1.131642630302e-01 0.000000000000e+00
  -6.335650692886e-03 1.181810000439e-01 0.000000000000e+00
  -7.048516322206e-03 1.241530320536e-01 0.000000000000e+00
  -7.859831349179e-03 1.309755895147e-01 0.000000000000e+00
  -8.781010163050e-03 1.386607606070e-01 0.000000000000e+00
  -9.809405841873e-03 1.472897649753e-01 0.000000000000e+00
  -1.092383471500e-02 1.569790072839e-01 0.000000000000e+00
  -1.207859389589e-02 1.678522388530e-01 0.000000000000e+00
  -1.319687091290e-02 1.800120235187e-01 0.000000000000e+00
  -1.416503141889e-02 1.935054946903e-01 0.000000000000e+00
  -1.482987084231e-02 2.082816271676e-01 0.000000000000e+00
  -1.500141021604e-02 2.241400063575e-01 0.000000000000e+00
  -1.446397816470e-02 2.406746008604e-01 0.000000000000e+00
  -1.299785042199e-02 2.572204108882e-01 0.000000000000e+00
  -1.041232171793e-02 2.728157250328e-01 0.000000000000e+00
  -6.588602151653e-03 2.861970976805e-01 0.000000000000e+00
  -1.527495273406e-03 2.958463936846e-01 0.000000000000e+00
  4.606996186959e-03 3.001071510846e-01 0.000000000000e+00
  1.146010869704e-02 2.973789142910e-01 0.000000000000e+00
  1.848776988624e-02 2.863818713000e-01 0.000000000000e+00
  2.499751924202e-02 2.664610488309e-01 0.000000000000e+00
  3.023257740263e-02 2.378737159062e-01 0.000000000000e+00
  3.349224798785e-02 2.019833319264e-01 0.000000000000e+00
  3.426981548256e-02 1.612784724572e-01 0.000000000000e+00
  3.237916030228e-02 1.191548649944e-01 0.000000000000e+00
  2.803743822939e-02 7.944649700299e-02 0.000000000000e+00
  2.187618383043e-02 4.576112183753e-02 0.000000000000e+00
  1.486727402453e-02 2.074813886345e-02 0.000000000000e+00
  8.170275268438e-03 5.476642155977e-03 0.000000000000e+00
  2.928265266821e-03 -8.962840730816e-04 0.000000000000e+00
  5.414155068779e-05 -1.043748973512e-03 0.000000000000e+00
  0.000000000000e+00 0.000000000000e+00 0.000000000000e+00
  0.000000000000e+00 0.000000000000e+00 0.000000000000e+00
  -2.843956540473e-02 7.261601353926e-03 0.000000000000e+00
  -1.958494695073e-02 1.958494695073e-02 0.000000000000e+00
  -3.049694230512e-03 2.569712083414e-02 0.000000000000e+00
  1.897776680038e-02 2.266679654431e-02 0.000000000000e+00
  4.359792704254e-02 9.102159766334e-03 0.000000000000e+00
  6.761153632219e-02 -1.470581218995e-02 0.000000000000e+00
  8.797996499563e-02 -4.695952769620e-02 0.000000000000e+00
  1.022576611358e-01 -8.477968578381e-02 0.000000000000e+00
  1.089174684689e-01 -1.247616480726e-01 0.000000000000e+00
  1.075087050615e-01 -1.635358373366e-01 0.000000000000e+00
  9.862513156349e-02 -1.982271752494e-01 0.000000000000e+00
  8.370370011390e-02 -2.267509705030e-01 0.000000000000e+00
  6.471097802727e-02 -2.479294926690e-01 0.000000000000e+00
  4.379182318959e-02 -2.614519552506e-01 0.000000000000e+00
  2.295132348863e-02 -2.677238637416e-01 0.000000000000e+00
  3.820790994402e-03 -2.676588051007e-01 0.000000000000e+00
  -1.246936148923e-02 -2.624602179684e-01 0.000000000000e+00
  -2.531359050622e-02 -2.534278273200e-01 0.000000000000e+00
  -3.457458785161e-02 -2.418084141741e-01 0.000000000000e+00
  -4.047730579355e-02 -2.286971886469e-01 0.000000000000e+00
  -4.348455482927e-02 -2.149862569000e-01 0.000000000000e+00
  -4.417867769148e-02 -2.013510122036e-01 0.000000000000e+00
  -4.316478325843e-02 -1.882632205577e-01 0.000000000000e+00
  -4.100221016282e-02 -1.760201243194e-01 0.000000000000e+00
  -3.816399126223e-02 -1.647810169981e-01 0.000000000000e+00
  -3.501972565643e-02 -1.546056203046e-01 0.000000000000e+00
  -3.183526315099e-02 -1.454916929785e-01 0.000000000000e+00
  -2.878238842397e-02 -1.374123441833e-01 0.000000000000e+00
  -2.595260997694e-02 -1.303563116758e-01 0.000000000000e+00
  -2.337072297517e-02 -1.243765791606e-01 0.000000000000e+00
  -2.100579533153e-02 -1.196531652230e-01 0.000000000000e+00
  -1.877960598195e-02 -1.165729410047e-01 0.000000000000e+00
  -1.657532766463e-02 -1.158206027194e-01 0.000000000000e+00
  -1.425201692535e-02 -1.184587594446e-01 0.000000000000e+00
  -1.167213227626e-02 -1.259528324343e-01 0.000000000000e+00
  -8.747906709240e-03 -1.400754040819e-01 0.000000000000e+00
  -5.505865516232e-03 -1.626195920620e-01 0.000000000000e+00
  -2.156562114907e-03 -1.948810880295e-01 0.000000000000e+00
  8.580654890257e-04 -2.369468126266e-01 0.000000000000e+00
  2.876337164961e-03 -2.869459008446e-01 0.000000000000e+00
  3.116943723314e-03 -3.405327214755e-01 0.000000000000e+00
  8.677829514135e-04 -3.909099425965e-01 0.000000000000e+00
  -4.280359873975e-03 -4.295963845072e-01 0.000000000000e+00
  -1.223590080548e-02 -4.478940044346e-01 0.000000000000e+00
  -2.232767949012e-02 -4.387026387562e-01 0.000000000000e+00
  -3.338683558240e-02 -3.981334649911e-01 0.000000000000e+00
  -4.396361975582e-02 -3.264194976924e-01 0.000000000000e+00
  -5.260111791565e-02 -2.279125936095e-01 0.000000000000e+00
  -5.808254569902e-02 -1.103240154240e-01 0.000000000000e+00
  -5.960740778617e-02 1.641849410709e-02 0.000000000000e+00
  -5.689787767557e-02 1.413751722610e-01 0.000000000000e+00
  -5.025176683677e-02 2.537619746213e-01 0.000000000000e+00
  -4.053638361670e-02 3.441527366539e-01 0.000000000000e+00
  -2.909008633950e-02 4.057374334293e-01 0.000000000000e+00
  -1.750500783310e-02 4.354326039864e-01 0.000000000000e+00
  -7.314801627853e-03 4.344524308663e-01 0.000000000000e+00
  3.266982727750e-04 4.079998894114e-01 0.000000000000e+00
  4.864314948567e-03 3.640431551555e-01 0.000000000000e+00
  6.381167762035e-03 3.115232210323e-01 0.000000000000e+00
  5.459026185617e-03 2.585620549915e-01 0.000000000000e+00
  2.931443149678e-03 2.111898276632e-01 0.000000000000e+00
  -3.692589528043e-04 1.728445482198e-01 0.000000000000e+00
  -3.791228460048e-03 1.445842946331e-01 0.000000000000e+00
  -6.937627103296e-03 1.257425348429e-01 0.000000000000e+00
  -9.651646174644e-03 1.147087554794e-01 0.000000000000e+00
  -1.195106693590e-02 1.095946998775e-01 0.000000000000e+00
  -1.395151474274e-02 1.086738858512e-01 0.000000000000e+00
  -1.580365623061e-02 1.105921539967e-01 0.000000000000e+00
  -1.765328378629e-02 1.144087304939e-01 0.000000000000e+00
  -1.962167729666e-02 1.195421817680e-01 0.000000000000e+00
  -2.179857694577e-02 1.256816156076e-01 0.000000000000e+00
  -2.423992411925e-02 1.326996681610e-01 0.000000000000e+00
  -2.696471955329e-02 1.405826562085e-01 0.000000000000e+00
  -2.994801863296e-02 1.493795641322e-01 0.000000000000e+00
  -3.310936684495e-02 1.591649852122e-01 0.000000000000e+00
  -3.629777365080e-02 1.700094269116e-01 0.000000000000e+00
  -3.927585924615e-02 1.819511980725e-01 0.000000000000e+00
  -4.170729473409e-02 1.949659161304e-01 0.000000000000e+00
  -4.315308633679e-02 2.089318367536e-01 0.000000000000e+00
  -4.308333678147e-02 2.235915865899e-01 0.000000000000e+00
  -4.091129142200e-02 2.385135432172e-01 0.000000000000e+00
  -3.605501306532e-02 2.530590624320e-01 0.000000000000e+00
  -2.802822864938e-02 2.663647603690e-01 0.000000000000e+00
  -1.655539612561e-02 2.773515102542e-01 0.000000000000e+00
  -1.697225751049e-03 2.847727038580e-01 0.000000000000e+00
  1.603678209824e-02 2.873123416015e-01 0.000000000000e+00
  3.562007120952e-02 2.837373221527e-01 0.000000000000e+00
  5.551877703943e-02 2.730970964192e-01 0.000000000000e+00
  7.380673884294e-02 2.549481125525e-01 0.000000000000e+00
  8.839556687027e-02 2.295627659967e-01 0.000000000000e+00
  9.736224228412e-02 1.980679358368e-01 0.000000000000e+00
  9.932487542040e-02 1.624536679158e-01 0.000000000000e+00
  9.378997279566e-02 1.254052273408e-01 0.000000000000e+00
  8.138246810493e-02 8.994536142016e-02 0.000000000000e+00
  6.388106842084e-02 5.892491150340e-02 0.000000000000e+00
  4.401793085095e-02 3.445639657335e-02 0.000000000000e+00
  2.505643519017e-02 1.742687886295e-02 0.000000000000e+00
  1.021942137723e-02 7.232503034509e-03 0.000000000000e+00
  2.085182775002e-03 1.835826237257e-03 0.000000000000e+00
  0.000000000000e+00 0.000000000000e+00 0.000000000000e+00
  0.000000000000e+00 0.000000000000e+00 0.000000000000e+00
  -3.914912918629e-02 1.490227267995e-03 0.000000000000e+00
  -2.569712083413e-02 3.049694230512e-03 0.000000000000e+00
  -6.219401689378e-04 6.219401689379e-04 0.000000000000e+00
  3.269532346982e-02 -7.602747460140e-03 0.000000000000e+00
  6.983136568822e-02 -2.238449868977e-02 0.000000000000e+00
  1.059817289269e-01 -4.338312625222e-02 0.000000000000e+00
  1.366615352348e-01 -6.933044861526e-02 0.000000000000e+00
  1.583246632429e-01 -9.834958901303e-02 0.000000000000e+00
  1.687957426609e-01 -1.283226315944e-01 0.000000000000e+00
  1.674496245793e-01 -1.572199723259e-01 0.000000000000e+00
  1.551282193223e-01 -1.833380615051e-01 0.000000000000e+00
  1.338392234825e-01 -2.054296569579e-01 0.000000000000e+00
  1.063201779052e-01 -2.227390385501e-01 0.000000000000e+00
  7.556566783430e-02 -2.349687444609e-01 0.000000000000e+00
  4.440521878910e-02 -2.422061257852e-01 0.000000000000e+00
  1.519180676590e-02 -2.448325985397e-01 0.000000000000e+00
  -1.037345341089e-02 -2.434310118690e-01 0.000000000000e+00
  -3.128606439533e-02 -2.387001934180e-01 0.000000000000e+00
  -4.717962506668e-02 -2.313814900594e-01 0.000000000000e+00
  -5.820136601370e-02 -2.221996538727e-01 0.000000000000e+00
  -6.485895293220e-02 -2.118189557201e-01 0.000000000000e+00
  -6.786880905268e-02 -2.008143344009e-01 0.000000000000e+00
  -6.802613870639e-02 -1.896564631398e-01 0.000000000000e+00
  -6.610670976943e-02 -1.787088837699e-01 0.000000000000e+00
  -6.280218578055e-02 -1.682350004370e-01 0.000000000000e+00
  -5.868517376158e-02 -1.584129144904e-01 0.000000000000e+00
  -5.419711873090e-02 -1.493569163288e-01 0.000000000000e+00
  -4.965122520689e-02 -1.411458890840e-01 0.000000000000e+00
  -4.524311572612e-02 -1.338606547028e-01 0.000000000000e+00
  -4.106350150718e-02 -1.276337373540e-01 0.000000000000e+00
  -3.710957191326e-02 -1.227148642664e-01 0.000000000000e+00
  -3.329514139962e-02 -1.195518618230e-01 0.000000000000e+00
  -2.946374783169e-02 -1.188773537834e-01 0.000000000000e+00
  -2.541314803789e-02 -1.217759189080e-01 0.000000000000e+00
  -2.094208705319e-02 -1.296866185940e-01 0.000000000000e+00
  -1.592768418549e-02 -1.442802463379e-01 0.000000000000e+00
  -1.043108083087e-02 -1.671533943212e-01 0.000000000000e+00
  -4.809571814271e-03 -1.993180981355e-01 0.000000000000e+00
  2.092659275290e-04 -2.405432677847e-01 0.000000000000e+00
  3.549117733426e-03 -2.887075690477e-01 0.000000000000e+00
  3.947457558167e-03 -3.394099994856e-01 0.000000000000e+00
  2.580876331661e-04 -3.860941336617e-01 0.000000000000e+00
  -8.175802810652e-03 -4.208301598823e-01 0.000000000000e+00
  -2.120416849109e-02 -4.356763220961e-01 0.000000000000e+00
  -3.773902456211e-02 -4.242936859370e-01 0.000000000000e+00
  -5.587738688666e-02 -3.833448989608e-01 0.000000000000e+00
  -7.324319242409e-02 -3.132654735772e-01 0.000000000000e+00
  -8.743080879015e-02 -2.182415027972e-01 0.000000000000e+00
  -9.641919268199e-02 -1.055252942295e-01 0.000000000000e+00
  -9.887865255324e-02 1.560409509930e-02 0.000000000000e+00
  -9.435968104377e-02 1.349610697495e-01 0.000000000000e+00
  -8.337933545709e-02 2.425496206696e-01 0.000000000000e+00
  -6.739488939052e-02 3.296652611469e-01 0.000000000000e+00
  -4.862101785403e-02 3.900047398346e-01 0.000000000000e+00
  -2.966154989677e-02 4.206207507433e-01 0.000000000000e+00
  -1.300264198571e-02 4.224151695689e-01 0.000000000000e+00
  -5.040239228273e-04 3.998970323075e-01 0.000000000000e+00
  6.940974109177e-03 3.601633971323e-01 0.000000000000e+00
  9.462051728924e-03 3.113650482457e-01 0.000000000000e+00
  7.988113598333e-03 2.611163071659e-01 0.000000000000e+00
  3.855698525762e-03 2.152955733409e-01 0.000000000000e+00
  -1.593249153507e-03 1.774884521283e-01 0.000000000000e+00
  -7.299098252110e-03 1.490682091885e-01 0.000000000000e+00
  -1.260767369034e-02 1.297135942708e-01 0.000000000000e+00
  -1.725055403223e-02 1.180945954001e-01 0.000000000000e+00
  -2.124271467043e-02 1.125004413156e-01 0.000000000000e+00
  -2.475931862242e-02 1.112851961475e-01 0.000000000000e+00
  -2.803263339140e-02 1.131062999434e-01 0.000000000000e+00
  -3.128460537165e-02 1.169961840755e-01 0.000000000000e+00
  -3.469206163127e-02 1.223305779524e-01 0.000000000000e+00
  -3.837304274526e-02 1.287511001844e-01 0.000000000000e+00
  -4.238216838107e-02 1.360806563926e-01 0.000000000000e+00
  -4.670631841549e-02 1.442506134450e-01 0.000000000000e+00
  -5.125619920735e-02 1.532447867671e-01 0.000000000000e+00
  -5.585302997709e-02 1.630579415589e-01 0.000000000000e+00
  -6.021232240413e-02 1.736641697977e-01 0.000000000000e+00
  -6.392880010514e-02 1.849910184828e-01 0.000000000000e+00
  -6.646821071418e-02 1.968969418171e-01 0.000000000000e+00
  -6.717316432377e-02 2.091515562792e-01 0.000000000000e+00
  -6.529088817314e-02 2.214198413584e-01 0.000000000000e+00
  -6.003031917881e-02 2.332526740949e-01 0.000000000000e+00
  -5.065350197254e-02 2.440868359913e-01 0.000000000000e+00
  -3.660113122977e-02 2.532578316510e-01 0.000000000000e+00
  -1.764398912530e-02 2.600284643441e-01 0.000000000000e+00
  5.958496971850e-03 2.636350932965e-01 0.000000000000e+00
  3.332262251407e-02 2.633518187716e-01 0.000000000000e+00
  6.286674553409e-02 2.585704328514e-01 0.000000000000e+00
  9.234131810810e-02 2.488907073166e-01 0.000000000000e+00
  1.189964928217e-01 2.342113651380e-01 0.000000000000e+00
  1.399000772153e-01 2.148071009903e-01 0.000000000000e+00
  1.523847782161e-01 1.913722244285e-01 0.000000000000e+00
  1.545625523496e-01 1.650089720544e-01 0.000000000000e+00
  1.458060110598e-01 1.371413671168e-01 0.000000000000e+00
  1.270759960290e-01 1.093467413658e-01 0.000000000000e+00
  1.009833478881e-01 8.311757938280e-02 0.000000000000e+00
  7.151755858643e-02 5.959265556550e-02 0.000000000000e+00
  4.345001116170e-02 3.931966295631e-02 0.000000000000e+00
  2.150691054372e-02 2.211983337207e-02 0.000000000000e+00
  9.480462788338e-03 7.109182257302e-03 0.000000000000e+00
  0.000000000000e+00 0.000000000000e+00 0.000000000000e+00
  0.000000000000e+00 0.000000000000e+00 0.000000000000e+00
  -3.894171032859e-02 -6.209233837544e-03 0.000000000000e+00
  -2.266679654431e-02 -1.897776680038e-02 0.000000000000e+00
  7.602747460140e-03 -3.269532346982e-02 0.000000000000e+00
  4.769483869356e-02 -4.769483869356e-02 0.000000000000e+00
  9.223945732133e-02 -6.397306830251e-02 0.000000000000e+00
  1.355234424390e-01 -8.122890499591e-02 0.000000000000e+00
  1.723372915201e-01 -9.897832526052e-02 0.000000000000e+00
  1.986613588042e-01 -1.166889076599e-01 0.000000000000e+00
  2.120881309130e-01 -1.338811644742e-01 0.000000000000e+00
  2.119432097787e-01 -1.501704002303e-01 0.000000000000e+00
  1.991315260689e-01 -1.652545446339e-01 0.000000000000e+00
  1.757820904867e-01 -1.788747424071e-01 0.000000000000e+00
  1.447867449846e-01 -1.907795620215e-01 0.000000000000e+00
  1.093264470704e-01 -2.007134130043e-01 0.000000000000e+00
  7.245901670260e-02 -2.084335778288e-01 0.000000000000e+00
  3.681387008354e-02 -2.137465878538e-01 0.000000000000e+00
  4.410335124956e-03 -2.165482274195e-01 0.000000000000e+00
  -2.340748738856e-02 -2.168525443695e-01 0.000000000000e+00
  -4.594185771399e-02 -2.148012081111e-01 0.000000000000e+00
  -6.304820096154e-02 -2.106518516264e-01 0.000000000000e+00
  -7.500748272816e-02 -2.047498892812e-01 0.000000000000e+00