# vtk DataFile Version 3.0
Karman Output
ASCII
DATASET RECTILINEAR_GRID
DIMENSIONS 101 101 1
X_COORDINATES 101 float
   0.000000000000e+00   9.900990099010e-03   1.980198019802e-02   2.970297029703e-02   3.960396039604e-02   4.950495049505e-02   5.940594059406e-02   6.930693069307e-02   7.920792079208e-02   8.910891089109e-02   9.900990099010e-02   1.089108910891e-01   1.188118811881e-01   1.287128712871e-01   1.386138613861e-01   1.485148514851e-01   1.584158415842e-01   1.683168316832e-01   1.782178217822e-01   1.881188118812e-01   1.980198019802e-01   2.079207920792e-01   2.178217821782e-01   2.277227722772e-01   2.376237623762e-01   2.475247524752e-01   2.574257425743e-01   2.673267326733e-01   2.772277227723e-01   2.871287128713e-01   2.970297029703e-01   3.069306930693e-01   3.168316831683e-01   3.267326732673e-01   3.366336633663e-01   3.465346534653e-01   3.564356435644e-01   3.663366336634e-01   3.762376237624e-01   3.861386138614e-01   3.960396039604e-01   4.059405940594e-01   4.158415841584e-01   4.257425742574e-01   4.356435643564e-01   4.455445544554e-01   4.554455445545e-01   4.653465346535e-01   4.752475247525e-01   4.851485148515e-01   4.950495049505e-01   5.049504950495e-01   5.148514851485e-01   5.247524752475e-01   5.346534653465e-01   5.445544554455e-01   5.544554455446e-01   5.643564356436e-01   5.742574257426e-01   5.841584158416e-01   5.940594059406e-01   6.039603960396e-01   6.138613861386e-01   6.237623762376e-01   6.336633663366e-01   6.435643564356e-01   6.534653465347e-01   6.633663366337e-01   6.732673267327e-01   6.831683168317e-01   6.930693069307e-01   7.029702970297e-01   7.128712871287e-01   7.227722772277e-01   7.326732673267e-01   7.425742574257e-01   7.524752475248e-01   7.623762376238e-01   7.722772277228e-01   7.821782178218e-01   7.920792079208e-01   8.019801980198e-01   8.118811881188e-01   8.217821782178e-01   8.316831683168e-01   8.415841584158e-01   8.514851485149e-01   8.613861386139e-01   8.712871287129e-01   8.811881188119e-01   8.910891089109e-01   9.009900990099e-01   9.108910891089e-01   9.207920792079e-01   9.306930693069e-01   9.405940594059e-01   9.504950495050e-01   9.603960396040e-01   9.702970297030e-01   9.801980198020e-01   9.900990099010e-01
Y_COORDINATES 101 float
   0.000000000000e+00   9.900990099010e-03   1.980198019802e-02   2.970297029703e-02   3.960396039604e-02   4.950495049505e-02   5.940594059406e-02   6.930693069307e-02   7.920792079208e-02   8.910891089109e-02   9.900990099010e-02   1.089108910891e-01   1.188118811881e-01   1.287128712871e-01   1.386138613861e-01   1.485148514851e-01   1.584158415842e-01   1.683168316832e-01   1.782178217822e-01   1.881188118812e-01   1.980198019802e-01   2.079207920792e-01   2.178217821782e-01   2.277227722772e-01   2.376237623762e-01   2.475247524752e-01   2.574257425743e-01   2.673267326733e-01   2.772277227723e-01   2.871287128713e-01   2.970297029703e-01   3.069306930693e-01   3.168316831683e-01   3.267326732673e-01   3.366336633663e-01   3.465346534653e-01   3.564356435644e-01   3.663366336634e-01   3.762376237624e-01   3.861386138614e-01   3.960396039604e-01   4.059405940594e-01   4.158415841584e-01   4.257425742574e-01   4.356435643564e-01   4.455445544554e-01   4.554455445545e-01   4.653465346535e-01   4.752475247525e-01   4.851485148515e-01   4.950495049505e-01   5.049504950495e-01   5.148514851485e-01   5.247524752475e-01   5.346534653465e-01   5.445544554455e-01   5.544554455446e-01   5.643564356436e-01   5.742574257426e-01   5.841584158416e-01   5.940594059406e-01   6.039603960396e-01   6.138613861386e-01   6.237623762376e-01   6.336633663366e-01   6.435643564356e-01   6.534653465347e-01   6.633663366337e-01   6.732673267327e-01   6.831683168317e-01   6.930693069307e-01   7.029702970297e-01   7.128712871287e-01   7.227722772277e-01   7.326732673267e-01   7.425742574257e-01   7.524752475248e-01   7.623762376238e-01   7.722772277228e-01   7.821782178218e-01   7.920792079208e-01   8.019801980198e-01   8.118811881188e-01   8.217821782178e-01   8.316831683168e-01   8.415841584158e-01   8.514851485149e-01   8.613861386139e-01   8.712871287129e-01   8.811881188119e-01   8.910891089109e-01   9.009900990099e-01   9.108910891089e-01   9.207920792079e-01   9.306930693069e-01   9.405940594059e-01   9.504950495050e-01   9.603960396040e-01   9.702970297030e-01   9.801980198020e-01   9.900990099010e-01
Z_COORDINATES 1 float
  0.000000000000e+00
POINT_DATA 10201
VECTORS E_field float
  0.000000000000e+00 0.000000000000e+00 0.000000000000e+00
  0.000000000000e+00 0.000000000000e+00 0.000000000000e+00
  0.000000000000e+00 0.000000000000e+00 0.000000000000e+00
  0.000000000000e+00 0.000000000000e+00 0.000000000000e+00
  0.000000000000e+00 0.000000000000e+00 0.000000000000e+00
  0.000000000000e+00 0.000000000000e+00 0.000000000000e+00
  0.000000000000e+00 0.000000000000e+00 0.000000000000e+00
  0.000000000000e+00 0.000000000000e+00 0.000000000000e+00
  0.000000000000e+00 0.000000000000e+00 0.000000000000e+00
  0.000000000000e+00 0.000000000000e+00 0.000000000000e+00
  0.000000000000e+00 0.000000000000e+00 0.000000000000e+00
  0.000000000000e+00 0.000000000000e+00 0.000000000000e+00
  0.000000000000e+00 0.000000000000e+00 0.000000000000e+00
  0.000000000000e+00 0.000000000000e+00 0.000000000000e+00
  0.000000000000e+00 0.000000000000e+00 0.000000000000e+00
  0.000000000000e+00 0.000000000000e+00 0.000000000000e+00
  0.000000000000e+00 0.000000000000e+00 0.000000000000e+00
  0.000000000000e+00 0.000000000000e+00 0.000000000000e+00
  0.000000000000e+00 0.000000000000e+00 0.000000000000e+00
  0.000000000000e+00 0.000000000000e+00 0.000000000000e+00
  0.000000000000e+00 0.000000000000e+00 0.000000000000e+00
  0.000000000000e+00 0.000000000000e+00 0.000000000000e+00
  0.000000000000e+00 0.000000000000e+00 0.000000000000e+00
  0.000000000000e+00 0.000000000000e+00 0.000000000000e+00
  0.000000000000e+00 0.000000000000e+00 0.000000000000e+00
  0.000000000000e+00 0.000000000000e+00 0.000000000000e+00
  0.000000000000e+00 0.000000000000e+00 0.000000000000e+00
  0.000000000000e+00 0.000000000000e+00 0.000000000000e+00
  0.000000000000e+00 0.000000000000e+00 0.000000000000e+00
  0.000000000000e+00 0.000000000000e+00 0.000000000000e+00
  0.000000000000e+00 0.000000000000e+00 0.000000000000e+00
  0.000000000000e+00 0.000000000000e+00 0.000000000000e+00
  0.000000000000e+00 0.000000000000e+00 0.000000000000e+00
  0.000000000000e+00 0.000000000000e+00 0.000000000000e+00
  0.000000000000e+00 0.000000000000e+00 0.000000000000e+00
  0.000000000000e+00 0.000000000000e+00 0.000000000000e+00
  0.000000000000e+00 0.000000000000e+00 0.000000000000e+00
  0.000000000000e+00 0.000000000000e+00 0.000000000000e+00
  0.000000000000e+00 0.000000000000e+00 0.000000000000e+00
  0.000000000000e+00 0.000000000000e+00 0.000000000000e+00
  0.000000000000e+00 0.000000000000e+00 0.000000000000e+00
  0.000000000000e+00 0.000000000000e+00 0.000000000000e+00
  0.000000000000e+00 0.000000000000e+00 0.000000000000e+00
  0.000000000000e+00 0.000000000000e+00 0.000000000000e+00
  0.000000000000e+00 0.000000000000e+00 0.000000000000e+00
  0.000000000000e+00 0.000000000000e+00 0.000000000000e+00
  0.000000000000e+00 0.000000000000e+00 0.000000000000e+00
  0.000000000000e+00 0.000000000000e+00 0.000000000000e+00
  0.000000000000e+00 0.000000000000e+00 0.000000000000e+00
  0.000000000000e+00 0.000000000000e+00 0.000000000000e+00
  0.000000000000e+00 0.000000000000e+00 0.000000000000e+00
  0.000000000000e+00 0.000000000000e+00 0.000000000000e+00
  0.000000000000e+00 0.000000000000e+00 0.000000000000e+00
  0.000000000000e+00 0.000000000000e+00 0.000000000000e+00
  0.000000000000e+00 0.000000000000e+00 0.000000000000e+00
  0.000000000000e+00 0.000000000000e+00 0.000000000000e+00
  0.000000000000e+00 0.000000000000e+00 0.000000000000e+00
  0.000000000000e+00 0.000000000000e+00 0.000000000000e+00
  0.000000000000e+00 0.000000000000e+00 0.000000000000e+00
  0.000000000000e+00 0.000000000000e+00 0.000000000000e+00
  0.000000000000e+00 0.000000000000e+00 0.000000000000e+00
  0.000000000000e+00 0.000000000000e+00 0.000000000000e+00
  0.000000000000e+00 0.000000000000e+00 0.000000000000e+00
  0.000000000000e+00 0.000000000000e+00 0.000000000000e+00
  0.000000000000e+00 0.000000000000e+00 0.000000000000e+00
  0.000000000000e+00 0.000000000000e+00 0.000000000000e+00
  0.000000000000e+00 0.000000000000e+00 0.000000000000e+00
  0.000000000000e+00 0.000000000000e+00 0.000000000000e+00
  0.000000000000e+00 0.000000000000e+00 0.000000000000e+00
  0.000000000000e+00 0.000000000000e+00 0.000000000000e+00
  0.000000000000e+00 0.000000000000e+00 0.000000000000e+00
  0.000000000000e+00 0.000000000000e+00 0.000000000000e+00
  0.000000000000e+00 0.000000000000e+00 0.000000000000e+00
  0.000000000000e+00 0.000000000000e+00 0.000000000000e+00
  0.000000000000e+00 0.000000000000e+00 0.000000000000e+00
  0.000000000000e+00 0.000000000000e+00 0.000000000000e+00
  0.000000000000e+00 0.000000000000e+00 0.000000000000e+00
  0.000000000000e+00 0.000000000000e+00 0.000000000000e+00
  0.000000000000e+00 0.000000000000e+00 0.000000000000e+00
  0.000000000000e+00 0.000000000000e+00 0.000000000000e+00
  0.000000000000e+00 0.000000000000e+00 0.000000000000e+00
  0.000000000000e+00 0.000000000000e+00 0.000000000000e+00
  0.000000000000e+00 0.000000000000e+00 0.000000000000e+00
  0.000000000000e+00 0.000000000000e+00 0.000000000000e+00
  0.000000000000e+00 0.000000000000e+00 0.000000000000e+00
  0.000000000000e+00 0.000000000000e+00 0.000000000000e+00
  0.000000000000e+00 0.000000000000e+00 0.000000000000e+00
  0.000000000000e+00 0.000000000000e+00 0.000000000000e+00
  0.000000000000e+00 0.000000000000e+00 0.000000000000e+00
  0.000000000000e+00 0.000000000000e+00 0.000000000000e+00
  0.000000000000e+00 0.000000000000e+00 0.000000000000e+00
  0.000000000000e+00 0.000000000000e+00 0.000000000000e+00
  0.000000000000e+00 0.000000000000e+00 0.000000000000e+00
  0.000000000000e+00 0.000000000000e+00 0.000000000000e+00
  0.000000000000e+00 0.000000000000e+00 0.000000000000e+00
  0.000000000000e+00 0.000000000000e+00 0.000000000000e+00
  0.000000000000e+00 0.000000000000e+00 0.000000000000e+00
  0.000000000000e+00 0.000000000000e+00 0.000000000000e+00
  0.000000000000e+00 0.000000000000e+00 0.000000000000e+00
  0.000000000000e+00 0.000000000000e+00 0.000000000000e+00
  0.000000000000e+00 0.000000000000e+00 0.000000000000e+00
  0.000000000000e+00 0.000000000000e+00 0.000000000000e+00
  -6.460158555402e-03 6.460158555402e-03 0.000000000000e+00
  -7.414544714821e-03 2.392315499735e-02 0.000000000000e+00
  -9.184092073556e-03 5.375514358861e-02 0.000000000000e+00
  -1.152067606856e-02 1.002747266285e-01 0.000000000000e+00
  -1.412342494102e-02 1.628553167678e-01 0.000000000000e+00
  -1.670904452304e-02 2.357741837388e-01 0.000000000000e+00
  -1.907659833603e-02 3.095517632822e-01 0.000000000000e+00
  -2.114418736992e-02 3.734940368165e-01 0.000000000000e+00
  -2.294276770404e-02 4.186409298818e-01 0.000000000000e+00
  -2.456953448700e-02 4.401013502484e-01 0.000000000000e+00
  -2.612108059926e-02 4.379978308847e-01 0.000000000000e+00
  -2.763438847862e-02 4.168413657342e-01 0.000000000000e+00
  -2.905735553957e-02 3.837804371845e-01 0.000000000000e+00
  -3.025494197661e-02 3.465015427288e-01 0.000000000000e+00
  -3.104195844064e-02 3.114993188790e-01 0.000000000000e+00
  -3.122627776013e-02 2.831105789168e-01 0.000000000000e+00
  -3.064776438229e-02 2.633387418657e-01 0.000000000000e+00
  -2.920458635335e-02 2.522463488069e-01 0.000000000000e+00
  -2.686520934729e-02 2.486112740342e-01 0.000000000000e+00
  -2.366864344574e-02 2.505883792192e-01 0.000000000000e+00
  -1.971700162645e-02 2.562239134925e-01 0.000000000000e+00
  -1.516395412505e-02 2.637752787242e-01 0.000000000000e+00
  -1.020136919352e-02 2.718601496597e-01 0.000000000000e+00
  -5.045240732339e-03 2.794894257042e-01 0.000000000000e+00
  7.863715620707e-05 2.860386708115e-01 0.000000000000e+00
  4.948890073814e-03 2.911981432168e-01 0.000000000000e+00
  9.362130935916e-03 2.949242371025e-01 0.000000000000e+00
  1.314511878989e-02 2.974012826859e-01 0.000000000000e+00
  1.616470303372e-02 2.990136518612e-01 0.000000000000e+00
  1.833493352922e-02 3.003227467659e-01 0.000000000000e+00
  1.962111358139e-02 3.020395660043e-01 0.000000000000e+00
  2.004106666681e-02 3.049795753826e-01 0.000000000000e+00
  1.966427957022e-02 3.099824431536e-01 0.000000000000e+00
  1.860959560457e-02 3.177768785047e-01 0.000000000000e+00
  1.704151087311e-02 3.287751189639e-01 0.000000000000e+00
  1.516386043535e-02 3.427989939290e-01 0.000000000000e+00
  1.320812469115e-02 3.587740759886e-01 0.000000000000e+00
  1.141244657079e-02 3.744771690752e-01 0.000000000000e+00
  9.987876937951e-03 3.864723601278e-01 0.000000000000e+00
  9.072091297201e-03 3.903976590136e-01 0.000000000000e+00
  8.679297108021e-03 3.817300534837e-01 0.000000000000e+00
  8.666722025139e-03 3.570190964597e-01 0.000000000000e+00
  8.745710521638e-03 3.153280780556e-01 0.000000000000e+00
  8.558164937242e-03 2.593371506395e-01 0.000000000000e+00
  7.811095986162e-03 1.954304754546e-01 0.000000000000e+00
  6.422711378059e-03 1.323118610818e-01 0.000000000000e+00
  4.607294938480e-03 7.831147888575e-02 0.000000000000e+00
  2.838019003610e-03 3.831190509857e-02 0.000000000000e+00
  1.681045633111e-03 1.167415466551e-02 0.000000000000e+00
  1.564906738938e-03 -7.700021562097e-03 0.000000000000e+00
  2.593252814586e-03 -2.896998328781e-02 0.000000000000e+00
  4.495293680465e-03 -6.058443049151e-02 0.000000000000e+00
  6.740280928710e-03 -1.068172949857e-01 0.000000000000e+00
  8.758694637746e-03 -1.661347303004e-01 0.000000000000e+00
  1.016216548780e-02 -2.319762926405e-01 0.000000000000e+00
  1.086390948632e-02 -2.953692766609e-01 0.000000000000e+00
  1.106094094635e-02 -3.480556549214e-01 0.000000000000e+00
  1.110960659349e-02 -3.848250848882e-01 0.000000000000e+00
  1.136729558967e-02 -4.043671032672e-01 0.000000000000e+00
  1.206971082209e-02 -4.087296614254e-01 0.000000000000e+00
  1.327807651248e-02 -4.019790764933e-01 0.000000000000e+00
  1.489146015598e-02 -3.887445092778e-01 0.000000000000e+00
  1.669693423706e-02 -3.731135498174e-01 0.000000000000e+00
  1.842871543490e-02 -3.580445790814e-01 0.000000000000e+00
  1.981803265986e-02 -3.452375480903e-01 0.000000000000e+00
  2.062746816612e-02 -3.353044644761e-01 0.000000000000e+00
  2.067108973792e-02 -3.280751145782e-01 0.000000000000e+00
  1.982444049265e-02 -3.229154431471e-01 0.000000000000e+00
  1.802825327158e-02 -3.189902425550e-01 0.000000000000e+00
  1.528837534293e-02 -3.154479011803e-01 0.000000000000e+00
  1.167291794068e-02 -3.115339430321e-01 0.000000000000e+00
  7.306682831629e-03 -3.066521641834e-01 0.000000000000e+00
  2.362656768454e-03 -3.003931769958e-01 0.000000000000e+00
  -2.949357737411e-03 -2.925466287503e-01 0.000000000000e+00
  -8.396412485524e-03 -2.831093221207e-01 0.000000000000e+00
  -1.373738857393e-02 -2.722982750145e-01 0.000000000000e+00
  -1.873807369650e-02 -2.605748883327e-01 0.000000000000e+00
  -2.318522663478e-02 -2.486820614796e-01 0.000000000000e+00
  -2.689887497361e-02 -2.376880180042e-01 0.000000000000e+00
  -2.974261125547e-02 -2.290172530059e-01 0.000000000000e+00
  -3.163211328332e-02 -2.244312925457e-01 0.000000000000e+00
  -3.254221212151e-02 -2.259052296109e-01 0.000000000000e+00
  -3.251227464624e-02 -2.353417573127e-01 0.000000000000e+00
  -3.164839840350e-02 -2.540885956970e-01 0.000000000000e+00
  -3.011934114316e-02 -2.822903732930e-01 0.000000000000e+00
  -2.814215524839e-02 -3.182092583607e-01 0.000000000000e+00
  -2.595443423599e-02 -3.577611433937e-01 0.000000000000e+00
  -2.377398688973e-02 -3.945786655651e-01 0.000000000000e+00
  -2.175350820744e-02 -4.208556876088e-01 0.000000000000e+00
  -1.994489150562e-02 -4.289998913288e-01 0.000000000000e+00
  -1.829038799215e-02 -4.137539875136e-01 0.000000000000e+00
  -1.665147468078e-02 -3.740953285102e-01 0.000000000000e+00
  -1.487136643682e-02 -3.141114033497e-01 0.000000000000e+00
  -1.285048498259e-02 -2.423212003469e-01 0.000000000000e+00
  -1.060567258856e-02 -1.695000754327e-01 0.000000000000e+00
  -8.289201518239e-03 -1.056865293802e-01 0.000000000000e+00
  -6.159926895326e-03 -5.738285946280e-02 0.000000000000e+00
  -4.517323818319e-03 -2.586076522367e-02 0.000000000000e+00
  -3.621072750575e-03 -7.048668431419e-03 0.000000000000e+00
  0.000000000000e+00 0.000000000000e+00 0.000000000000e+00
  0.000000000000e+00 0.000000000000e+00 0.000000000000e+00
  -2.392315499735e-02 7.414544714821e-03 0.000000000000e+00
  -2.663980521751e-02 2.663980521751e-02 0.000000000000e+00
  -3.165785874147e-02 5.782609425114e-02 0.000000000000e+00
  -3.823893365801e-02 1.051214348775e-01 0.000000000000e+00
  -4.549119171083e-02 1.678636154440e-01 0.000000000000e+00
  -5.258044598344e-02 2.404407589172e-01 0.000000000000e+00
  -5.892330352270e-02 3.135955994561e-01 0.000000000000e+00
  -6.429562273379e-02 3.768901088876e-01 0.000000000000e+00
  -6.881335593054e-02 4.215611713415e-01 0.000000000000e+00
  -7.279367147618e-02 4.427881911172e-01 0.000000000000e+00
  -7.655629523489e-02 4.406251598869e-01 0.000000000000e+00
  -8.024775272268e-02 4.194188020992e-01 0.000000000000e+00
  -8.375235212658e-02 3.861305672843e-01 0.000000000000e+00
  -8.670788168814e-02 3.483045286276e-01 0.000000000000e+00
  -8.859972587843e-02 3.123751936345e-01 0.000000000000e+00
  -8.888580667497e-02 2.827051042773e-01 0.000000000000e+00
  -8.710915795686e-02 2.613890544092e-01 0.000000000000e+00
  -8.297371557690e-02 2.486174158544e-01 0.000000000000e+00
  -7.637851630888e-02 2.433056307126e-01 0.000000000000e+00
  -6.741813099464e-02 2.437370713250e-01 0.000000000000e+00
  -5.636151134111e-02 2.480669599138e-01 0.000000000000e+00
  -4.361991640021e-02 2.546375898606e-01 0.000000000000e+00
  -2.971060664575e-02 2.621259438373e-01 0.000000000000e+00
  -1.521930683605e-02 2.695762032557e-01 0.000000000000e+00
  -7.623943698160e-04 2.763711029053e-01 0.000000000000e+00
  1.305063113571e-02 2.821824326999e-01 0.000000000000e+00
  2.565331347789e-02 2.869240244151e-01 0.000000000000e+00
  3.655528603740e-02 2.907165349599e-01 0.000000000000e+00
  4.537017474616e-02 2.938639266347e-01 0.000000000000e+00
  5.183670690692e-02 2.968357093361e-01 0.000000000000e+00
  5.583233846015e-02 3.002447918287e-01 0.000000000000e+00
  5.737995818574e-02 3.048067767474e-01 0.000000000000e+00
  5.664919242242e-02 3.112627946491e-01 0.000000000000e+00
  5.395373109992e-02 3.202466722981e-01 0.000000000000e+00
  4.974421980159e-02 3.320829212019e-01 0.000000000000e+00
  4.459258306824e-02 3.465204788650e-01 0.000000000000e+00
  3.915920848067e-02 3.624417013894e-01 0.000000000000e+00
  3.413136583037e-02 3.776330644534e-01 0.000000000000e+00
  3.012301475305e-02 3.887493854728e-01 0.000000000000e+00
  2.753771812408e-02 3.916217159578e-01 0.000000000000e+00
  2.642146230715e-02 3.820150465732e-01 0.000000000000e+00
  2.636563016991e-02 3.568025106276e-01 0.000000000000e+00
  2.654109403145e-02 3.152902115775e-01 0.000000000000e+00
  2.592168345517e-02 2.601819733365e-01 0.000000000000e+00
  2.367384767376e-02 1.975805575571e-01 0.000000000000e+00
  1.957679655027e-02 1.356472147833e-01 0.000000000000e+00
  1.426389750578e-02 8.210444074125e-02 0.000000000000e+00
  9.111898192157e-03 4.144021855907e-02 0.000000000000e+00
  5.760733501570e-03 1.305397932186e-02 0.000000000000e+00
  5.448796914317e-03 -8.651770698726e-03 0.000000000000e+00
  8.474120346216e-03 -3.207190364206e-02 0.000000000000e+00
  1.405188123096e-02 -6.496231189472e-02 0.000000000000e+00
  2.064375444963e-02 -1.112762740790e-01 0.000000000000e+00
  2.659480756843e-02 -1.696452180840e-01 0.000000000000e+00
  3.076819454252e-02 -2.340426627444e-01 0.000000000000e+00
  3.289509431470e-02 -2.961315503992e-01 0.000000000000e+00
  3.352721242527e-02 -3.481225308270e-01 0.000000000000e+00
  3.368077093542e-02 -3.849604332096e-01 0.000000000000e+00
  3.438053126277e-02 -4.051892043315e-01 0.000000000000e+00
  3.630407975590e-02 -4.105335241390e-01 0.000000000000e+00
  3.962721609026e-02 -4.047067158461e-01 0.000000000000e+00
  4.405851082929e-02 -3.920615483390e-01 0.000000000000e+00
  4.898521239286e-02 -3.765286864235e-01 0.000000000000e+00
  5.364654052382e-02 -3.610225518196e-01 0.000000000000e+00
  5.728013017238e-02 -3.472824822357e-01 0.000000000000e+00
  5.922215839340e-02 -3.360109940643e-01 0.000000000000e+00
  5.896435653626e-02 -3.271544047085e-01 0.000000000000e+00
  5.617986481008e-02 -3.202050120475e-01 0.000000000000e+00
  5.072979196659e-02 -3.144544135911e-01 0.000000000000e+00
  4.265850433922e-02 -3.091725645887e-01 0.000000000000e+00
  3.218137191791e-02 -3.037166898004e-01 0.000000000000e+00
  1.966576371623e-02 -2.975875741045e-01 0.000000000000e+00
  5.605105435901e-03 -2.904530827313e-01 0.000000000000e+00
  -9.413642294309e-03 -2.821559607788e-01 0.000000000000e+00
  -2.474754775170e-02 -2.727190298867e-01 0.000000000000e+00
  -3.973773890644e-02 -2.623574000053e-01 0.000000000000e+00
  -5.374888983233e-02 -2.515039272935e-01 0.000000000000e+00
  -6.620550026536e-02 -2.408492591476e-01 0.000000000000e+00
  -7.662337193908e-02 -2.313893003237e-01 0.000000000000e+00
  -8.463613155063e-02 -2.244594747930e-01 0.000000000000e+00
  -9.001785119399e-02 -2.217178490874e-01 0.000000000000e+00
  -9.270290020723e-02 -2.250235252178e-01 0.000000000000e+00
  -9.280230071606e-02 -2.361539986723e-01 0.000000000000e+00
  -9.061191946108e-02 -2.563306118352e-01 0.000000000000e+00
  -8.660304155305e-02 -2.855862923232e-01 0.000000000000e+00
  -8.138300795193e-02 -3.221105588264e-01 0.000000000000e+00
  -7.561640836676e-02 -3.618141635257e-01 0.000000000000e+00
  -6.990897162437e-02 -3.984135295218e-01 0.000000000000e+00
  -6.467633144581e-02 -4.242739425129e-01 0.000000000000e+00
  -6.004074830674e-02 -4.320258362655e-01 0.000000000000e+00
  -5.580641328669e-02 -4.166168811103e-01 0.000000000000e+00
  -5.154532166506e-02 -3.771324398464e-01 0.000000000000e+00
  -4.678190132139e-02 -3.176178206010e-01 0.000000000000e+00
  -4.121572944196e-02 -2.464018364292e-01 0.000000000000e+00
  -3.489638009659e-02 -1.739836010898e-01 0.000000000000e+00
  -2.827946793969e-02 -1.101363869503e-01 0.000000000000e+00
  -2.214055645397e-02 -6.120118800132e-02 0.000000000000e+00
  -1.737795631777e-02 -2.844763989835e-02 0.000000000000e+00
  -1.477143141274e-02 -7.964569729515e-03 0.000000000000e+00
  0.000000000000e+00 0.000000000000e+00 0.000000000000e+00
  0.000000000000e+00 0.000000000000e+00 0.000000000000e+00
  -5.375514358861e-02 9.184092073556e-03 0.000000000000e+00
  -5.782609425114e-02 3.165785874147e-02 0.000000000000e+00
  -6.528531576235e-02 6.528531576235e-02 0.000000000000e+00
  -7.492416224926e-02 1.138821347698e-01 0.000000000000e+00
  -8.529395554124e-02 1.767249668966e-01 0.000000000000e+00
  -9.505732747416e-02 2.484320336701e-01 0.000000000000e+00
  -1.033053843630e-01 3.201952391312e-01 0.000000000000e+00
  -1.097326732487e-01 3.820900773092e-01 0.000000000000e+00
  -1.146028473934e-01 4.257491102614e-01 0.000000000000e+00
  -1.185202012919e-01 4.464979216414e-01 0.000000000000e+00
  -1.221047998986e-01 4.442626517281e-01 0.000000000000e+00
  -1.257041946291e-01 4.230721624763e-01 0.000000000000e+00
  -1.292440271355e-01 3.895216388175e-01 0.000000000000e+00
  -1.322464603021e-01 3.508714198226e-01 0.000000000000e+00
  -1.339746121540e-01 3.134282984817e-01 0.000000000000e+00
  -1.336269441487e-01 2.815904122214e-01 0.000000000000e+00
  -1.305124592151e-01 2.576126128134e-01 0.000000000000e+00
  -1.241677470457e-01 2.419137029009e-01 0.000000000000e+00
  -1.144086607180e-01 2.336550580703e-01 0.000000000000e+00
  -1.013299201074e-01 2.313485180425e-01 0.000000000000e+00
  -8.527291032789e-02 2.333418837633e-01 0.000000000000e+00
  -6.677922145560e-02 2.381273821979e-01 0.000000000000e+00
  -4.654061820986e-02 2.444882384998e-01 0.000000000000e+00
  -2.534967790750e-02 2.515316684812e-01 0.000000000000e+00
  -4.051572160996e-03 2.586606194670e-01 0.000000000000e+00
  1.650350754112e-02 2.655248109305e-01 0.000000000000e+00
  3.550705341311e-02 2.719754179703e-01 0.000000000000e+00
  5.223666397654e-02 2.780335582817e-01 0.000000000000e+00
  6.609603180982e-02 2.838726467709e-01 0.000000000000e+00
  7.664846808592e-02 2.898080207633e-01 0.000000000000e+00
  8.364290827962e-02 2.962824086552e-01 0.000000000000e+00
  8.703272969951e-02 3.038317187768e-01 0.000000000000e+00
  8.698867665004e-02 3.130126714354e-01 0.000000000000e+00
  8.390657164940e-02 3.242743618407e-01 0.000000000000e+00
  7.840726887672e-02 3.377640457410e-01 0.000000000000e+00
  7.132048060511e-02 3.530777793499e-01 0.000000000000e+00
  6.363739800823e-02 3.690008581214e-01 0.000000000000e+00
  5.641305226765e-02 3.833260961650e-01 0.000000000000e+00
  5.060385346043e-02 3.928739037275e-01 0.000000000000e+00
  4.684611973935e-02 3.938402281739e-01 0.000000000000e+00
  4.522194854144e-02 3.825369615419e-01 0.000000000000e+00
  4.510946374992e-02 3.564489128156e-01 0.000000000000e+00
  4.524221146049e-02 3.153355981080e-01 0.000000000000e+00
  4.406233465516e-02 2.619358745390e-01 0.000000000000e+00
  4.032465542836e-02 2.018121717647e-01 0.000000000000e+00
  3.373868983086e-02 1.420986177294e-01 0.000000000000e+00
  2.532880308204e-02 8.937582402316e-02 0.000000000000e+00
  1.725237706180e-02 4.739726101260e-02 0.000000000000e+00
  1.205548425615e-02 1.564499469617e-02 0.000000000000e+00
  1.165142809023e-02 -1.052679309152e-02 0.000000000000e+00
  1.649560456232e-02 -3.806638105245e-02 0.000000000000e+00
  2.536761965228e-02 -7.341761049683e-02 0.000000000000e+00
  3.587539352796e-02 -1.199206227435e-01 0.000000000000e+00
  4.543189556342e-02 -1.765084248619e-01 0.000000000000e+00
  5.223321271709e-02 -2.381541604684e-01 0.000000000000e+00
  5.580556557762e-02 -2.977193057321e-01 0.000000000000e+00
  5.694482067466e-02 -3.483061491395e-01 0.000000000000e+00
  5.717872832124e-02 -3.851642814731e-01 0.000000000000e+00
  5.806755383873e-02 -4.065739422894e-01 0.000000000000e+00
  6.065130385197e-02 -4.136560850066e-01 0.000000000000e+00
  6.520393968037e-02 -4.094599273975e-01 0.000000000000e+00
  7.128251645151e-02 -3.978182084933e-01 0.000000000000e+00
  7.795441088132e-02 -3.823706224045e-01 0.000000000000e+00
  8.407146090714e-02 -3.659589940936e-01 0.000000000000e+00
  8.850272030382e-02 -3.504108890717e-01 0.000000000000e+00
  9.029148616370e-02 -3.366133813499e-01 0.000000000000e+00
  8.873966880528e-02 -3.247423982317e-01 0.000000000000e+00
  8.343862511299e-02 -3.145314831197e-01 0.000000000000e+00
  7.426692622152e-02 -3.055061707915e-01 0.000000000000e+00
  6.137003427458e-02 -2.971526278179e-01 0.000000000000e+00
  4.513001658329e-02 -2.890194764606e-01 0.000000000000e+00
  2.612834949690e-02 -2.807675121572e-01 0.000000000000e+00
  5.102629082875e-03 -2.721867659847e-01 0.000000000000e+00
  -1.710193333695e-02 -2.631989673756e-01 0.000000000000e+00
  -3.958425378137e-02 -2.538597973882e-01 0.000000000000e+00
  -6.143936436124e-02 -2.443713307692e-01 0.000000000000e+00
  -8.180740079278e-02 -2.351108091721e-01 0.000000000000e+00
  -9.991710738526e-02 -2.266760602434e-01 0.000000000000e+00
  -1.151230474104e-01 -2.199386875291e-01 0.000000000000e+00
  -1.269377544651e-01 -2.160826209213e-01 0.000000000000e+00
  -1.350615218033e-01 -2.165892159775e-01 0.000000000000e+00
  -1.394120642398e-01 -2.231165668780e-01 0.000000000000e+00
  -1.401526655165e-01 -2.372209552266e-01 0.000000000000e+00
  -1.377105343001e-01 -2.598961677522e-01 0.000000000000e+00
  -1.327690109286e-01 -2.909711376858e-01 0.000000000000e+00
  -1.262125406847e-01 -3.285022173088e-01 0.000000000000e+00
  -1.190080464614e-01 -3.683935988517e-01 0.000000000000e+00
  -1.120255058084e-01 -4.045240715912e-01 0.000000000000e+00
  -1.058331642822e-01 -4.295883821484e-01 0.000000000000e+00
  -1.005365549328e-01 -4.366435891185e-01 0.000000000000e+00
  -9.574255948675e-02 -4.210274587234e-01 0.000000000000e+00
  -9.069992265085e-02 -3.820255906909e-01 0.000000000000e+00
  -8.459772406444e-02 -3.235902886867e-01 0.000000000000e+00
  -7.692513946830e-02 -2.536681248191e-01 0.000000000000e+00
  -6.775457126192e-02 -1.822072302516e-01 0.000000000000e+00
  -5.783280379975e-02 -1.184514374075e-01 0.000000000000e+00
  -4.844005151022e-02 -6.841780131933e-02 0.000000000000e+00
  -4.106470373815e-02 -3.336897448861e-02 0.000000000000e+00
  -3.700221005168e-02 -9.712253730766e-03 0.000000000000e+00
  0.000000000000e+00 0.000000000000e+00 0.000000000000e+00
  0.000000000000e+00 0.000000000000e+00 0.000000000000e+00
  -1.002747266285e-01 1.152067606856e-02 0.000000000000e+00
  -1.051214348775e-01 3.823893365801e-02 0.000000000000e+00
  -1.138821347698e-01 7.492416224926e-02 0.000000000000e+00
  -1.249157109094e-01 1.249157109094e-01 0.000000000000e+00
  -1.362767741819e-01 1.874222473214e-01 0.000000000000e+00
  -1.462037938443e-01 2.574251448406e-01 0.000000000000e+00
  -1.535512102737e-01 3.267976012791e-01 0.000000000000e+00
  -1.580209757750e-01 3.863847695483e-01 0.000000000000e+00
  -1.601085873016e-01 4.284122036936e-01 0.000000000000e+00
  -1.607889440326e-01 4.484325388387e-01 0.000000000000e+00
  -1.610745936064e-01 4.461982827113e-01 0.000000000000e+00
  -1.616230141862e-01 4.252843468033e-01 0.000000000000e+00
  -1.625279211661e-01 3.917541939767e-01 0.000000000000e+00
  -1.633329044956e-01 3.524462811594e-01 0.000000000000e+00
  -1.632125572426e-01 3.134612417438e-01 0.000000000000e+00
  -1.612208092380e-01 2.792180529494e-01 0.000000000000e+00
  -1.565149128448e-01 2.521645907587e-01 0.000000000000e+00
  -1.485035165715e-01 2.330056165130e-01 0.000000000000e+00
  -1.369098465116e-01 2.212103880705e-01 0.000000000000e+00
  -1.217687600002e-01 2.155733609203e-01 0.000000000000e+00
  -1.033858319734e-01 2.146771030791e-01 0.000000000000e+00
  -8.228267636412e-02 2.171953184006e-01 0.000000000000e+00