# vtk DataFile Version 3.0
Karman Output
ASCII
DATASET RECTILINEAR_GRID
DIMENSIONS 101 101 1
X_COORDINATES 101 float
   0.000000000000e+00   9.900990099010e-03   1.980198019802e-02   2.970297029703e-02   3.960396039604e-02   4.950495049505e-02   5.940594059406e-02   6.930693069307e-02   7.920792079208e-02   8.910891089109e-02   9.900990099010e-02   1.089108910891e-01   1.188118811881e-01   1.287128712871e-01   1.386138613861e-01   1.485148514851e-01   1.584158415842e-01   1.683168316832e-01   1.782178217822e-01   1.881188118812e-01   1.980198019802e-01   2.079207920792e-01   2.178217821782e-01   2.277227722772e-01   2.376237623762e-01   2.475247524752e-01   2.574257425743e-01   2.673267326733e-01   2.772277227723e-01   2.871287128713e-01   2.970297029703e-01   3.069306930693e-01   3.168316831683e-01   3.267326732673e-01   3.366336633663e-01   3.465346534653e-01   3.564356435644e-01   3.663366336634e-01   3.762376237624e-01   3.861386138614e-01   3.960396039604e-01   4.059405940594e-01   4.158415841584e-01   4.257425742574e-01   4.356435643564e-01   4.455445544554e-01   4.554455445545e-01   4.653465346535e-01   4.752475247525e-01   4.851485148515e-01   4.950495049505e-01   5.049504950495e-01   5.148514851485e-01   5.247524752475e-01   5.346534653465e-01   5.445544554455e-01   5.544554455446e-01   5.643564356436e-01   5.742574257426e-01   5.841584158416e-01   5.940594059406e-01   6.039603960396e-01   6.138613861386e-01   6.237623762376e-01   6.336633663366e-01   6.435643564356e-01   6.534653465347e-01   6.633663366337e-01   6.732673267327e-01   6.831683168317e-01   6.930693069307e-01   7.029702970297e-01   7.128712871287e-01   7.227722772277e-01   7.326732673267e-01   7.425742574257e-01   7.524752475248e-01   7.623762376238e-01   7.722772277228e-01   7.821782178218e-01   7.920792079208e-01   8.019801980198e-01   8.118811881188e-01   8.217821782178e-01   8.316831683168e-01   8.415841584158e-01   8.514851485149e-01   8.613861386139e-01   8.712871287129e-01   8.811881188119e-01   8.910891089109e-01   9.009900990099e-01   9.108910891089e-01   9.207920792079e-01   9.306930693069e-01   9.405940594059e-01   9.504950495050e-01   9.603960396040e-01   9.702970297030e-01   9.801980198020e-01   9.900990099010e-01
Y_COORDINATES 101 float
   0.000000000000e+00   9.900990099010e-03   1.980198019802e-02   2.970297029703e-02   3.960396039604e-02   4.950495049505e-02   5.940594059406e-02   6.930693069307e-02   7.920792079208e-02   8.910891089109e-02   9.900990099010e-02   1.089108910891e-01   1.188118811881e-01   1.287128712871e-01   1.386138613861e-01   1.485148514851e-01   1.584158415842e-01   1.683168316832e-01   1.782178217822e-01   1.881188118812e-01   1.980198019802e-01   2.079207920792e-01   2.178217821782e-01   2.277227722772e-01   2.376237623762e-01   2.475247524752e-01   2.574257425743e-01   2.673267326733e-01   2.772277227723e-01   2.871287128713e-01   2.970297029703e-01   3.069306930693e-01   3.168316831683e-01   3.267326732673e-01   3.366336633663e-01   3.465346534653e-01   3.564356435644e-01   3.663366336634e-01   3.762376237624e-01   3.861386138614e-01   3.960396039604e-01   4.059405940594e-01   4.158415841584e-01   4.257425742574e-01   4.356435643564e-01   4.455445544554e-01   4.554455445545e-01   4.653465346535e-01   4.752475247525e-01   4.851485148515e-01   4.950495049505e-01   5.049504950495e-01   5.148514851485e-01   5.247524752475e-01   5.346534653465e-01   5.445544554455e-01   5.544554455446e-01   5.643564356436e-01   5.742574257426e-01   5.841584158416e-01   5.940594059406e-01   6.039603960396e-01   6.138613861386e-01   6.237623762376e-01   6.336633663366e-01   6.435643564356e-01   6.534653465347e-01   6.633663366337e-01   6.732673267327e-01   6.831683168317e-01   6.930693069307e-01   7.029702970297e-01   7.128712871287e-01   7.227722772277e-01   7.326732673267e-01   7.425742574257e-01   7.524752475248e-01   7.623762376238e-01   7.722772277228e-01   7.821782178218e-01   7.920792079208e-01   8.019801980198e-01   8.118811881188e-01   8.217821782178e-01   8.316831683168e-01   8.415841584158e-01   8.514851485149e-01   8.613861386139e-01   8.712871287129e-01   8.811881188119e-01   8.910891089109e-01   9.009900990099e-01   9.108910891089e-01   9.207920792079e-01   9.306930693069e-01   9.405940594059e-01   9.504950495050e-01   9.603960396040e-01   9.702970297030e-01   9.801980198020e-01   9.900990099010e-01
Z_COORDINATES 1 float
  0.000000000000e+00
POINT_DATA 10201
VECTORS E_field float
  0.000000000000e+00 0.000000000000e+00 0.000000000000e+00
  0.000000000000e+00 0.000000000000e+00 0.000000000000e+00
  0.000000000000e+00 0.000000000000e+00 0.000000000000e+00
  0.000000000000e+00 0.000000000000e+00 0.000000000000e+00
  0.000000000000e+00 0.000000000000e+00 0.000000000000e+00
  0.000000000000e+00 0.000000000000e+00 0.000000000000e+00
  0.000000000000e+00 0.000000000000e+00 0.000000000000e+00
  0.000000000000e+00 0.000000000000e+00 0.000000000000e+00
  0.000000000000e+00 0.000000000000e+00 0.000000000000e+00
  0.000000000000e+00 0.000000000000e+00 0.000000000000e+00
  0.000000000000e+00 0.000000000000e+00 0.000000000000e+00
  0.000000000000e+00 0.000000000000e+00 0.000000000000e+00
  0.000000000000e+00 0.000000000000e+00 0.000000000000e+00
  0.000000000000e+00 0.000000000000e+00 0.000000000000e+00
  0.000000000000e+00 0.000000000000e+00 0.000000000000e+00
  0.000000000000e+00 0.000000000000e+00 0.000000000000e+00
  0.000000000000e+00 0.000000000000e+00 0.000000000000e+00
  0.000000000000e+00 0.000000000000e+00 0.000000000000e+00
  0.000000000000e+00 0.000000000000e+00 0.000000000000e+00
  0.000000000000e+00 0.000000000000e+00 0.000000000000e+00
  0.000000000000e+00 0.000000000000e+00 0.000000000000e+00
  0.000000000000e+00 0.000000000000e+00 0.000000000000e+00
  0.000000000000e+00 0.000000000000e+00 0.000000000000e+00
  0.000000000000e+00 0.000000000000e+00 0.000000000000e+00
  0.000000000000e+00 0.000000000000e+00 0.000000000000e+00
  0.000000000000e+00 0.000000000000e+00 0.000000000000e+00
  0.000000000000e+00 0.000000000000e+00 0.000000000000e+00
  0.000000000000e+00 0.000000000000e+00 0.000000000000e+00
  0.000000000000e+00 0.000000000000e+00 0.000000000000e+00
  0.000000000000e+00 0.000000000000e+00 0.000000000000e+00
  0.000000000000e+00 0.000000000000e+00 0.000000000000e+00
  0.000000000000e+00 0.000000000000e+00 0.000000000000e+00
  0.000000000000e+00 0.000000000000e+00 0.000000000000e+00
  0.000000000000e+00 0.000000000000e+00 0.000000000000e+00
  0.000000000000e+00 0.000000000000e+00 0.000000000000e+00
  0.000000000000e+00 0.000000000000e+00 0.000000000000e+00
  0.000000000000e+00 0.000000000000e+00 0.000000000000e+00
  0.000000000000e+00 0.000000000000e+00 0.000000000000e+00
  0.000000000000e+00 0.000000000000e+00 0.000000000000e+00
  0.000000000000e+00 0.000000000000e+00 0.000000000000e+00
  0.000000000000e+00 0.000000000000e+00 0.000000000000e+00
  0.000000000000e+00 0.000000000000e+00 0.000000000000e+00
  0.000000000000e+00 0.000000000000e+00 0.000000000000e+00
  0.000000000000e+00 0.000000000000e+00 0.000000000000e+00
  0.000000000000e+00 0.000000000000e+00 0.000000000000e+00
  0.000000000000e+00 0.000000000000e+00 0.000000000000e+00
  0.000000000000e+00 0.000000000000e+00 0.000000000000e+00
  0.000000000000e+00 0.000000000000e+00 0.000000000000e+00
  0.000000000000e+00 0.000000000000e+00 0.000000000000e+00
  0.000000000000e+00 0.000000000000e+00 0.000000000000e+00
  0.000000000000e+00 0.000000000000e+00 0.000000000000e+00
  0.000000000000e+00 0.000000000000e+00 0.000000000000e+00
  0.000000000000e+00 0.000000000000e+00 0.000000000000e+00
  0.000000000000e+00 0.000000000000e+00 0.000000000000e+00
  0.000000000000e+00 0.000000000000e+00 0.000000000000e+00
  0.000000000000e+00 0.000000000000e+00 0.000000000000e+00
  0.000000000000e+00 0.000000000000e+00 0.000000000000e+00
  0.000000000000e+00 0.000000000000e+00 0.000000000000e+00
  0.000000000000e+00 0.000000000000e+00 0.000000000000e+00
  0.000000000000e+00 0.000000000000e+00 0.000000000000e+00
  0.000000000000e+00 0.000000000000e+00 0.000000000000e+00
  0.000000000000e+00 0.000000000000e+00 0.000000000000e+00
  0.000000000000e+00 0.000000000000e+00 0.000000000000e+00
  0.000000000000e+00 0.000000000000e+00 0.000000000000e+00
  0.000000000000e+00 0.000000000000e+00 0.000000000000e+00
  0.000000000000e+00 0.000000000000e+00 0.000000000000e+00
  0.000000000000e+00 0.000000000000e+00 0.000000000000e+00
  0.000000000000e+00 0.000000000000e+00 0.000000000000e+00
  0.000000000000e+00 0.000000000000e+00 0.000000000000e+00
  0.000000000000e+00 0.000000000000e+00 0.000000000000e+00
  0.000000000000e+00 0.000000000000e+00 0.000000000000e+00
  0.000000000000e+00 0.000000000000e+00 0.000000000000e+00
  0.000000000000e+00 0.000000000000e+00 0.000000000000e+00
  0.000000000000e+00 0.000000000000e+00 0.000000000000e+00
  0.000000000000e+00 0.000000000000e+00 0.000000000000e+00
  0.000000000000e+00 0.000000000000e+00 0.000000000000e+00
  0.000000000000e+00 0.000000000000e+00 0.000000000000e+00
  0.000000000000e+00 0.000000000000e+00 0.000000000000e+00
  0.000000000000e+00 0.000000000000e+00 0.000000000000e+00
  0.000000000000e+00 0.000000000000e+00 0.000000000000e+00
  0.000000000000e+00 0.000000000000e+00 0.000000000000e+00
  0.000000000000e+00 0.000000000000e+00 0.000000000000e+00
  0.000000000000e+00 0.000000000000e+00 0.000000000000e+00
  0.000000000000e+00 0.000000000000e+00 0.000000000000e+00
  0.000000000000e+00 0.000000000000e+00 0.000000000000e+00
  0.000000000000e+00 0.000000000000e+00 0.000000000000e+00
  0.000000000000e+00 0.000000000000e+00 0.000000000000e+00
  0.000000000000e+00 0.000000000000e+00 0.000000000000e+00
  0.000000000000e+00 0.000000000000e+00 0.000000000000e+00
  0.000000000000e+00 0.000000000000e+00 0.000000000000e+00
  0.000000000000e+00 0.000000000000e+00 0.000000000000e+00
  0.000000000000e+00 0.000000000000e+00 0.000000000000e+00
  0.000000000000e+00 0.000000000000e+00 0.000000000000e+00
  0.000000000000e+00 0.000000000000e+00 0.000000000000e+00
  0.000000000000e+00 0.000000000000e+00 0.000000000000e+00
  0.000000000000e+00 0.000000000000e+00 0.000000000000e+00
  0.000000000000e+00 0.000000000000e+00 0.000000000000e+00
  0.000000000000e+00 0.000000000000e+00 0.000000000000e+00
  0.000000000000e+00 0.000000000000e+00 0.000000000000e+00
  0.000000000000e+00 0.000000000000e+00 0.000000000000e+00
  0.000000000000e+00 0.000000000000e+00 0.000000000000e+00
  0.000000000000e+00 0.000000000000e+00 0.000000000000e+00
  -4.946283806646e-02 4.946283806646e-02 0.000000000000e+00
  -4.932289363234e-02 1.419904961367e-01 0.000000000000e+00
  -4.905456083530e-02 2.167458720065e-01 0.000000000000e+00
  -4.867535700080e-02 2.661879969322e-01 0.000000000000e+00
  -4.820338436502e-02 2.879068803968e-01 0.000000000000e+00
  -4.765704210122e-02 2.845478660699e-01 0.000000000000e+00
  -4.705783868961e-02 2.625196301882e-01 0.000000000000e+00
  -4.642934906155e-02 2.299134422447e-01 0.000000000000e+00
  -4.578871767514e-02 1.942147621718e-01 0.000000000000e+00
  -4.513655825595e-02 1.604728713733e-01 0.000000000000e+00
  -4.445721308496e-02 1.305395064745e-01 0.000000000000e+00
  -4.373643244957e-02 1.036730968753e-01 0.000000000000e+00
  -4.298939692815e-02 7.825960988876e-02 0.000000000000e+00
  -4.227908732086e-02 5.387592277062e-02 0.000000000000e+00
  -4.170419935269e-02 3.272862916271e-02 0.000000000000e+00
  -4.135008749408e-02 1.976700111204e-02 0.000000000000e+00
  -4.121856737566e-02 2.134735580685e-02 0.000000000000e+00
  -4.117027774362e-02 4.292561232507e-02 0.000000000000e+00
  -4.091581012291e-02 8.663178639129e-02 0.000000000000e+00
  -4.007531635038e-02 1.496344986159e-01 0.000000000000e+00
  -3.829650080971e-02 2.239548210880e-01 0.000000000000e+00
  -3.539092578264e-02 2.979226782944e-01 0.000000000000e+00
  -3.143335827127e-02 3.589187524037e-01 0.000000000000e+00
  -2.677775505458e-02 3.965852175706e-01 0.000000000000e+00
  -2.197442958120e-02 4.054935849514e-01 0.000000000000e+00
  -1.761275812628e-02 3.864219046054e-01 0.000000000000e+00
  -1.414448098989e-02 3.458698043944e-01 0.000000000000e+00
  -1.175071867429e-02 2.940464648498e-01 0.000000000000e+00
  -1.029863892545e-02 2.420639161058e-01 0.000000000000e+00
  -9.399755508774e-03 1.992652828661e-01 0.000000000000e+00
  -8.545503461779e-03 1.714548985985e-01 0.000000000000e+00
  -7.270612323373e-03 1.603676721920e-01 0.000000000000e+00
  -5.288891292554e-03 1.642232125118e-01 0.000000000000e+00
  -2.559923696670e-03 1.788815566503e-01 0.000000000000e+00
  7.275082968013e-04 1.990865386882e-01 0.000000000000e+00
  4.239635258380e-03 2.195093508772e-01 0.000000000000e+00
  7.613081079839e-03 2.355846648555e-01 0.000000000000e+00
  1.056016233302e-02 2.442352120790e-01 0.000000000000e+00
  1.293356926292e-02 2.444398949308e-01 0.000000000000e+00
  1.473882603932e-02 2.373834961272e-01 0.000000000000e+00
  1.610087899348e-02 2.259010372244e-01 0.000000000000e+00
  1.720220687028e-02 2.132147220749e-01 0.000000000000e+00
  1.821323104509e-02 2.013931117874e-01 0.000000000000e+00
  1.923390428506e-02 1.902227418957e-01 0.000000000000e+00
  2.026054175875e-02 1.770658732167e-01 0.000000000000e+00
  2.118529984235e-02 1.578447312394e-01 0.000000000000e+00
  2.182781813039e-02 1.287890725774e-01 0.000000000000e+00
  2.199063509876e-02 8.824970984508e-02 0.000000000000e+00
  2.152383219255e-02 3.783267566326e-02 0.000000000000e+00
  2.038149572091e-02 -1.765059988120e-02 0.000000000000e+00
  1.865382471056e-02 -7.147039020353e-02 0.000000000000e+00
  1.656406218952e-02 -1.170524927670e-01 0.000000000000e+00
  1.442803112667e-02 -1.500463157707e-01 0.000000000000e+00
  1.258412969403e-02 -1.695839016352e-01 0.000000000000e+00
  1.131068025957e-02 -1.782575989836e-01 0.000000000000e+00
  1.075281204399e-02 -1.808613109108e-01 0.000000000000e+00
  1.088029470108e-02 -1.824233427410e-01 0.000000000000e+00
  1.148998411270e-02 -1.863279774549e-01 0.000000000000e+00
  1.225337235724e-02 -1.932767687149e-01 0.000000000000e+00
  1.279567182158e-02 -2.014728171723e-01 0.000000000000e+00
  1.278368601923e-02 -2.078529342268e-01 0.000000000000e+00
  1.199904936270e-02 -2.097151625241e-01 0.000000000000e+00
  1.038026627795e-02 -2.059721548023e-01 0.000000000000e+00
  8.026758861526e-03 -1.975757493176e-01 0.000000000000e+00
  5.166457377271e-03 -1.871742753957e-01 0.000000000000e+00
  2.094190802232e-03 -1.784126178498e-01 0.000000000000e+00
  -9.071510946328e-04 -1.752563746533e-01 0.000000000000e+00
  -3.645765082976e-03 -1.814250369044e-01 0.000000000000e+00
  -6.079693362191e-03 -1.997622929174e-01 0.000000000000e+00
  -8.335248337929e-03 -2.313864929962e-01 0.000000000000e+00
  -1.067306241169e-02 -2.747333411039e-01 0.000000000000e+00
  -1.340442590941e-02 -3.249052487444e-01 0.000000000000e+00
  -1.677831847033e-02 -3.738380663355e-01 0.000000000000e+00
  -2.087412567750e-02 -4.115855056861e-01 0.000000000000e+00
  -2.553959638458e-02 -4.285835619787e-01 0.000000000000e+00
  -3.040326113060e-02 -4.182919245553e-01 0.000000000000e+00
  -3.496577998541e-02 -3.793381363924e-01 0.000000000000e+00
  -3.874350366244e-02 -3.163573217251e-01 0.000000000000e+00
  -4.141355284763e-02 -2.391259855424e-01 0.000000000000e+00
  -4.290575083884e-02 -1.601819822288e-01 0.000000000000e+00
  -4.340694621517e-02 -9.166599393234e-02 0.000000000000e+00
  -4.327943864017e-02 -4.239512676888e-02 0.000000000000e+00
  -4.293038125068e-02 -1.608587646893e-02 0.000000000000e+00
  -4.268644882369e-02 -1.123089802782e-02 0.000000000000e+00
  -4.272025693695e-02 -2.256043255267e-02 0.000000000000e+00
  -4.304737291882e-02 -4.347924470024e-02 0.000000000000e+00
  -4.358003206118e-02 -6.853700060430e-02 0.000000000000e+00
  -4.420190174034e-02 -9.498790187282e-02 0.000000000000e+00
  -4.482657776036e-02 -1.228625029327e-01 0.000000000000e+00
  -4.541904450360e-02 -1.536076340443e-01 0.000000000000e+00
  -4.598284048559e-02 -1.879866429054e-01 0.000000000000e+00
  -4.653234025806e-02 -2.242531946795e-01 0.000000000000e+00
  -4.707125371629e-02 -2.574451235137e-01 0.000000000000e+00
  -4.758731542610e-02 -2.801031454004e-01 0.000000000000e+00
  -4.805928185089e-02 -2.841246490165e-01 0.000000000000e+00
  -4.846583520012e-02 -2.631006367457e-01 0.000000000000e+00
  -4.878939725917e-02 -2.144177026887e-01 0.000000000000e+00
  -4.901547028279e-02 -1.405240992332e-01 0.000000000000e+00
  -4.913213837752e-02 -4.895974337690e-02 0.000000000000e+00
  0.000000000000e+00 0.000000000000e+00 0.000000000000e+00
  0.000000000000e+00 0.000000000000e+00 0.000000000000e+00
  -1.419904961367e-01 4.932289363234e-02 0.000000000000e+00
  -1.415839438364e-01 1.415839438364e-01 0.000000000000e+00
  -1.408050220763e-01 2.161051697497e-01 0.000000000000e+00
  -1.397060183411e-01 2.653504916192e-01 0.000000000000e+00
  -1.383417745683e-01 2.869081693012e-01 0.000000000000e+00
  -1.367685226405e-01 2.834269829739e-01 0.000000000000e+00
  -1.350513539201e-01 2.613241411522e-01 0.000000000000e+00
  -1.332605434432e-01 2.286896311757e-01 0.000000000000e+00
  -1.314468456603e-01 1.929842440715e-01 0.000000000000e+00
  -1.296130106128e-01 1.592173950068e-01 0.000000000000e+00
  -1.277158578981e-01 1.292184849552e-01 0.000000000000e+00
  -1.257184060402e-01 1.022758859014e-01 0.000000000000e+00
  -1.236704432677e-01 7.686182256869e-02 0.000000000000e+00
  -1.217591414825e-01 5.265209869820e-02 0.000000000000e+00
  -1.202702052740e-01 3.188862905847e-02 0.000000000000e+00
  -1.194425328969e-01 1.942521698057e-02 0.000000000000e+00
  -1.192642307487e-01 2.137931767165e-02 0.000000000000e+00
  -1.193084687891e-01 4.288959886864e-02 0.000000000000e+00
  -1.187131337845e-01 8.581799722250e-02 0.000000000000e+00
  -1.163591397874e-01 1.472538000150e-01 0.000000000000e+00
  -1.112159822250e-01 2.194135465857e-01 0.000000000000e+00
  -1.027376087522e-01 2.910800042969e-01 0.000000000000e+00
  -9.114922471792e-02 3.502154748555e-01 0.000000000000e+00
  -7.749204279770e-02 3.869757099818e-01 0.000000000000e+00
  -6.338211888386e-02 3.961898431529e-01 0.000000000000e+00
  -5.055365802682e-02 3.785355140919e-01 0.000000000000e+00
  -4.034542971616e-02 3.400796894609e-01 0.000000000000e+00
  -3.331253452251e-02 2.904099222741e-01 0.000000000000e+00
  -2.909679696799e-02 2.400326413782e-01 0.000000000000e+00
  -2.659131902725e-02 1.978921962363e-01 0.000000000000e+00
  -2.432945963968e-02 1.697118737937e-01 0.000000000000e+00
  -2.095533186169e-02 1.574616780806e-01 0.000000000000e+00
  -1.561563189032e-02 1.598077856215e-01 0.000000000000e+00
  -8.153217285978e-03 1.731056013412e-01 0.000000000000e+00
  9.374583294168e-04 1.924843863900e-01 0.000000000000e+00
  1.074674862797e-02 2.127900859182e-01 0.000000000000e+00
  2.027280818945e-02 2.294044244367e-01 0.000000000000e+00
  2.871430081942e-02 2.390268786231e-01 0.000000000000e+00
  3.564868506613e-02 2.403404372232e-01 0.000000000000e+00
  4.106657581632e-02 2.342598063277e-01 0.000000000000e+00
  4.528217300636e-02 2.234470769074e-01 0.000000000000e+00
  4.876802925729e-02 2.110814983015e-01 0.000000000000e+00
  5.196927142218e-02 1.993140692690e-01 0.000000000000e+00
  5.514628021590e-02 1.881041024387e-01 0.000000000000e+00
  5.828285331812e-02 1.750213021648e-01 0.000000000000e+00
  6.108093655144e-02 1.561664610468e-01 0.000000000000e+00
  6.304310014337e-02 1.278626609630e-01 0.000000000000e+00
  6.362232651789e-02 8.843407818412e-02 0.000000000000e+00
  6.240031387511e-02 3.933712292897e-02 0.000000000000e+00
  5.924562754569e-02 -1.485802430756e-02 0.000000000000e+00
  5.440508572626e-02 -6.769475293073e-02 0.000000000000e+00
  4.849651486528e-02 -1.128297966646e-01 0.000000000000e+00
  4.239605219906e-02 -1.460325181736e-01 0.000000000000e+00
  3.704277085745e-02 -1.664005165071e-01 0.000000000000e+00
  3.320945464690e-02 -1.763342185301e-01 0.000000000000e+00
  3.130246078885e-02 -1.803198293622e-01 0.000000000000e+00
  3.124952263523e-02 -1.830393688665e-01 0.000000000000e+00
  3.251063559248e-02 -1.875827537681e-01 0.000000000000e+00
  3.420987103187e-02 -1.944846161478e-01 0.000000000000e+00
  3.534857926087e-02 -2.019459774850e-01 0.000000000000e+00
  3.503839153574e-02 -2.070576004282e-01 0.000000000000e+00
  3.269370698098e-02 -2.073811751429e-01 0.000000000000e+00
  2.814297545480e-02 -2.021366275953e-01 0.000000000000e+00
  2.164255354407e-02 -1.925573472131e-01 0.000000000000e+00
  1.379550436622e-02 -1.814853268482e-01 0.000000000000e+00
  5.390113392802e-03 -1.726239088550e-01 0.000000000000e+00
  -2.814136677777e-03 -1.698394916844e-01 0.000000000000e+00
  -1.030825836342e-02 -1.766091842014e-01 0.000000000000e+00
  -1.700303025005e-02 -1.954494454556e-01 0.000000000000e+00
  -2.328481128213e-02 -2.271620044508e-01 0.000000000000e+00
  -2.991933552391e-02 -2.699854913341e-01 0.000000000000e+00
  -3.780946117739e-02 -3.190316093631e-01 0.000000000000e+00
  -4.766680224084e-02 -3.664804720925e-01 0.000000000000e+00
  -5.970074942686e-02 -4.028133455360e-01 0.000000000000e+00
  -7.344098704331e-02 -4.189500138052e-01 0.000000000000e+00
  -8.777788501361e-02 -4.087249100124e-01 0.000000000000e+00
  -1.012320166284e-01 -3.708885004658e-01 0.000000000000e+00
  -1.123737176207e-01 -3.098875329824e-01 0.000000000000e+00
  -1.202453789749e-01 -2.350540637458e-01 0.000000000000e+00
  -1.246289445374e-01 -1.583781404717e-01 0.000000000000e+00
  -1.260597734097e-01 -9.153781144075e-02 0.000000000000e+00
  -1.255917760799e-01 -4.311881416531e-02 0.000000000000e+00
  -1.244193510692e-01 -1.688367147265e-02 0.000000000000e+00
  -1.235119413297e-01 -1.158444519060e-02 0.000000000000e+00
  -1.233957219246e-01 -2.228929668179e-02 0.000000000000e+00
  -1.241387136912e-01 -4.268027282260e-02 0.000000000000e+00
  -1.255017782101e-01 -6.744024882070e-02 0.000000000000e+00
  -1.271541176580e-01 -9.381044452943e-02 0.000000000000e+00
  -1.288450898415e-01 -1.217243120725e-01 0.000000000000e+00
  -1.304702453392e-01 -1.525282026637e-01 0.000000000000e+00
  -1.320371532168e-01 -1.869353704264e-01 0.000000000000e+00
  -1.335859421898e-01 -2.232061784130e-01 0.000000000000e+00
  -1.351260184733e-01 -2.564131500384e-01 0.000000000000e+00
  -1.366192054316e-01 -2.791258702077e-01 0.000000000000e+00
  -1.379993019542e-01 -2.832498612618e-01 0.000000000000e+00
  -1.391983125159e-01 -2.623698605894e-01 0.000000000000e+00
  -1.401586557776e-01 -2.138645735242e-01 0.000000000000e+00
  -1.408324657467e-01 -1.401773454049e-01 0.000000000000e+00
  -1.411809860939e-01 -4.884130876315e-02 0.000000000000e+00
  0.000000000000e+00 0.000000000000e+00 0.000000000000e+00
  0.000000000000e+00 0.000000000000e+00 0.000000000000e+00
  -2.167458720065e-01 4.905456083530e-02 0.000000000000e+00
  -2.161051697497e-01 1.408050220763e-01 0.000000000000e+00
  -2.148800397102e-01 2.148800397102e-01 0.000000000000e+00
  -2.131583390247e-01 2.637549172380e-01 0.000000000000e+00
  -2.110351310018e-01 2.850162918868e-01 0.000000000000e+00
  -2.086093499075e-01 2.813198273663e-01 0.000000000000e+00
  -2.059927025735e-01 2.590974807054e-01 0.000000000000e+00
  -2.033014512408e-01 2.264342298129e-01 0.000000000000e+00
  -2.006176038553e-01 1.907421002660e-01 0.000000000000e+00
  -1.979472608996e-01 1.569553608091e-01 0.000000000000e+00
  -1.952283084925e-01 1.268644140311e-01 0.000000000000e+00
  -1.924145654840e-01 9.981876195922e-02 0.000000000000e+00
  -1.895992668362e-01 7.445568509055e-02 0.000000000000e+00
  -1.870857658831e-01 5.063343343806e-02 0.000000000000e+00
  -1.853154789814e-01 3.064807120845e-02 0.000000000000e+00
  -1.846323972755e-01 1.915502074759e-02 0.000000000000e+00
  -1.849645374860e-01 2.180335196684e-02 0.000000000000e+00
  -1.855778650619e-01 4.312313018979e-02 0.000000000000e+00
  -1.850612574307e-01 8.447252326561e-02 0.000000000000e+00
  -1.816208693508e-01 1.428048918949e-01 0.000000000000e+00
  -1.736284406061e-01 2.107268683987e-01 0.000000000000e+00
  -1.602392607567e-01 2.778991291617e-01 0.000000000000e+00
  -1.418343320220e-01 3.334030372217e-01 0.000000000000e+00
  -1.200844478908e-01 3.683810815642e-01 0.000000000000e+00
  -9.757091079085e-02 3.781610105568e-01 0.000000000000e+00
  -7.707188736982e-02 3.632368624099e-01 0.000000000000e+00
  -6.075854008726e-02 3.288567655497e-01 0.000000000000e+00
  -4.958247290243e-02 2.834238838069e-01 0.000000000000e+00
  -4.306232852728e-02 2.362827979158e-01 0.000000000000e+00
  -3.952725389669e-02 1.956014871277e-01 0.000000000000e+00
  -3.671119653112e-02 1.669246661499e-01 0.000000000000e+00
  -3.247696914322e-02 1.526405305599e-01 0.000000000000e+00
  -2.542162717550e-02 1.522338912059e-01 0.000000000000e+00
  -1.517900818248e-02 1.629744621651e-01 0.000000000000e+00
  -2.360865916887e-03 1.807067076958e-01 0.000000000000e+00
  1.178834826458e-02 2.006092601514e-01 0.000000000000e+00
  2.586049775901e-02 2.179870411800e-01 0.000000000000e+00
  3.870253458457e-02 2.291607324769e-01 0.000000000000e+00
  4.966698582644e-02 2.323077479624e-01 0.000000000000e+00
  5.866047053875e-02 2.278811202466e-01 0.000000000000e+00
  6.602614457947e-02 2.182444919276e-01 0.000000000000e+00
  7.232896257011e-02 2.064954092676e-01 0.000000000000e+00
  7.811444744666e-02 1.949134315520e-01 0.000000000000e+00
  8.370017057375e-02 1.837420085863e-01 0.000000000000e+00
  8.904615850512e-02 1.709008353856e-01 0.000000000000e+00
  9.373552877935e-02 1.527994747511e-01 0.000000000000e+00
  9.707463869597e-02 1.259283741848e-01 0.000000000000e+00
  9.829260560458e-02 8.857117208081e-02 0.000000000000e+00
  9.679024944924e-02 4.192439816201e-02 0.000000000000e+00
  9.236860644372e-02 -9.868969977327e-03 0.000000000000e+00
  8.536568845114e-02 -6.084034734814e-02 0.000000000000e+00
  7.665061801099e-02 -1.050605609838e-01 0.000000000000e+00
  6.746325393803e-02 -1.385139272874e-01 0.000000000000e+00
  5.913438865512e-02 -1.602369610568e-01 0.000000000000e+00
  5.276148966075e-02 -1.722915591496e-01 0.000000000000e+00
  4.893330541671e-02 -1.786273110649e-01 0.000000000000e+00
  4.758497423240e-02 -1.833306182637e-01 0.000000000000e+00
  4.802519489376e-02 -1.889928384088e-01 0.000000000000e+00
  4.912201633156e-02 -1.958705887608e-01 0.000000000000e+00
  4.958581561253e-02 -2.021625127011e-01 0.000000000000e+00
  4.826700002190e-02 -2.052120621527e-01 0.000000000000e+00
  4.439703796242e-02 -2.030120669997e-01 0.000000000000e+00
  3.773087523308e-02 -1.952888416248e-01 0.000000000000e+00
  2.857521671625e-02 -1.837490528541e-01 0.000000000000e+00
  1.769983069293e-02 -1.715711860707e-01 0.000000000000e+00
  6.136257093711e-03 -1.625690851005e-01 0.000000000000e+00
  -5.113240888360e-03 -1.604405674106e-01 0.000000000000e+00
  -1.539852899563e-02 -1.682286986962e-01 0.000000000000e+00
  -2.468201648181e-02 -1.878516715955e-01 0.000000000000e+00
  -3.363188287016e-02 -2.195281308944e-01 0.000000000000e+00
  -4.347739678027e-02 -2.611393267406e-01 0.000000000000e+00
  -5.563094657899e-02 -3.078340985054e-01 0.000000000000e+00
  -7.117301506080e-02 -3.522785734054e-01 0.000000000000e+00
  -9.036784025392e-02 -3.857864718441e-01 0.000000000000e+00
  -1.123948344659e-01 -4.002096556688e-01 0.000000000000e+00
  -1.354257500463e-01 -3.900974545981e-01 0.000000000000e+00
  -1.570594341617e-01 -3.544281401499e-01 0.000000000000e+00
  -1.749857046792e-01 -2.972799217885e-01 0.000000000000e+00
  -1.876478730404e-01 -2.271278452244e-01 0.000000000000e+00
  -1.946617260218e-01 -1.549069404490e-01 0.000000000000e+00
  -1.968406773891e-01 -9.139923122370e-02 0.000000000000e+00
  -1.958348596476e-01 -4.473120945369e-02 0.000000000000e+00
  -1.935443962536e-01 -1.873416458902e-02 0.000000000000e+00
  -1.915445612681e-01 -1.264119679916e-02 0.000000000000e+00
  -1.907312000315e-01 -2.216212571502e-02 0.000000000000e+00
  -1.912788711603e-01 -4.151678089389e-02 0.000000000000e+00
  -1.928614156361e-01 -6.565813175477e-02 0.000000000000e+00
  -1.949833504349e-01 -9.181828734870e-02 0.000000000000e+00
  -1.972539131383e-01 -1.197549343662e-01 0.000000000000e+00
  -1.995015544604e-01 -1.506247835503e-01 0.000000000000e+00
  -2.017302398939e-01 -1.850431962286e-01 0.000000000000e+00
  -2.039987040934e-01 -2.212810994382e-01 0.000000000000e+00
  -2.063189651466e-01 -2.544778916765e-01 0.000000000000e+00
  -2.086252252922e-01 -2.772616814658e-01 0.000000000000e+00
  -2.108016259745e-01 -2.815575527989e-01 0.000000000000e+00
  -2.127240754693e-01 -2.609407089958e-01 0.000000000000e+00
  -2.142828111937e-01 -2.127746461317e-01 0.000000000000e+00
  -2.153852699594e-01 -1.394910040627e-01 0.000000000000e+00
  -2.159579829976e-01 -4.860641671995e-02 0.000000000000e+00
  0.000000000000e+00 0.000000000000e+00 0.000000000000e+00
  0.000000000000e+00 0.000000000000e+00 0.000000000000e+00
  -2.661879969322e-01 4.867535700080e-02 0.000000000000e+00
  -2.653504916192e-01 1.397060183411e-01 0.000000000000e+00
  -2.637549172380e-01 2.131583390247e-01 0.000000000000e+00
  -2.615292674407e-01 2.615292674407e-01 0.000000000000e+00
  -2.588181313771e-01 2.824075975974e-01 0.000000000000e+00
  -2.557741608739e-01 2.784587700581e-01 0.000000000000e+00
  -2.525624892178e-01 2.561302190235e-01 0.000000000000e+00
  -2.493444367091e-01 2.234921876534e-01 0.000000000000e+00
  -2.462276583167e-01 1.878835166477e-01 0.000000000000e+00
  -2.432194365266e-01 1.541353796816e-01 0.000000000000e+00
  -2.402460120474e-01 1.239920182723e-01 0.000000000000e+00
  -2.372653477493e-01 9.689675041140e-02 0.000000000000e+00
  -2.344196796376e-01 7.171672987882e-02 0.000000000000e+00
  -2.321096260258e-01 4.854883408491e-02 0.000000000000e+00
  -2.308817896659e-01 2.973454730004e-02 0.000000000000e+00
  -2.311148820896e-01 1.961855537378e-02 0.000000000000e+00
  -2.326166161093e-01 2.317369157087e-02 0.000000000000e+00
  -2.343314325701e-01 4.408093462245e-02 0.000000000000e+00
  -2.343529295016e-01 8.301960813324e-02 0.000000000000e+00
  -2.303268605428e-01 1.367913499886e-01 0.000000000000e+00
  -2.201625741318e-01 1.985836951494e-01 0.000000000000e+00