# vtk DataFile Version 3.0
Karman Output
ASCII
DATASET RECTILINEAR_GRID
DIMENSIONS 101 101 1
X_COORDINATES 101 float
   0.000000000000e+00   9.900990099010e-03   1.980198019802e-02   2.970297029703e-02   3.960396039604e-02   4.950495049505e-02   5.940594059406e-02   6.930693069307e-02   7.920792079208e-02   8.910891089109e-02   9.900990099010e-02   1.089108910891e-01   1.188118811881e-01   1.287128712871e-01   1.386138613861e-01   1.485148514851e-01   1.584158415842e-01   1.683168316832e-01   1.782178217822e-01   1.881188118812e-01   1.980198019802e-01   2.079207920792e-01   2.178217821782e-01   2.277227722772e-01   2.376237623762e-01   2.475247524752e-01   2.574257425743e-01   2.673267326733e-01   2.772277227723e-01   2.871287128713e-01   2.970297029703e-01   3.069306930693e-01   3.168316831683e-01   3.267326732673e-01   3.366336633663e-01   3.465346534653e-01   3.564356435644e-01   3.663366336634e-01   3.762376237624e-01   3.861386138614e-01   3.960396039604e-01   4.059405940594e-01   4.158415841584e-01   4.257425742574e-01   4.356435643564e-01   4.455445544554e-01   4.554455445545e-01   4.653465346535e-01   4.752475247525e-01   4.851485148515e-01   4.950495049505e-01   5.049504950495e-01   5.148514851485e-01   5.247524752475e-01   5.346534653465e-01   5.445544554455e-01   5.544554455446e-01   5.643564356436e-01   5.742574257426e-01   5.841584158416e-01   5.940594059406e-01   6.039603960396e-01   6.138613861386e-01   6.237623762376e-01   6.336633663366e-01   6.435643564356e-01   6.534653465347e-01   6.633663366337e-01   6.732673267327e-01   6.831683168317e-01   6.930693069307e-01   7.029702970297e-01   7.128712871287e-01   7.227722772277e-01   7.326732673267e-01   7.425742574257e-01   7.524752475248e-01   7.623762376238e-01   7.722772277228e-01   7.821782178218e-01   7.920792079208e-01   8.019801980198e-01   8.118811881188e-01   8.217821782178e-01   8.316831683168e-01   8.415841584158e-01   8.514851485149e-01   8.613861386139e-01   8.712871287129e-01   8.811881188119e-01   8.910891089109e-01   9.009900990099e-01   9.108910891089e-01   9.207920792079e-01   9.306930693069e-01   9.405940594059e-01   9.504950495050e-01   9.603960396040e-01   9.702970297030e-01   9.801980198020e-01   9.900990099010e-01
Y_COORDINATES 101 float
   0.000000000000e+00   9.900990099010e-03   1.980198019802e-02   2.970297029703e-02   3.960396039604e-02   4.950495049505e-02   5.940594059406e-02   6.930693069307e-02   7.920792079208e-02   8.910891089109e-02   9.900990099010e-02   1.089108910891e-01   1.188118811881e-01   1.287128712871e-01   1.386138613861e-01   1.485148514851e-01   1.584158415842e-01   1.683168316832e-01   1.782178217822e-01   1.881188118812e-01   1.980198019802e-01   2.079207920792e-01   2.178217821782e-01   2.277227722772e-01   2.376237623762e-01   2.475247524752e-01   2.574257425743e-01   2.673267326733e-01   2.772277227723e-01   2.871287128713e-01   2.970297029703e-01   3.069306930693e-01   3.168316831683e-01   3.267326732673e-01   3.366336633663e-01   3.465346534653e-01   3.564356435644e-01   3.663366336634e-01   3.762376237624e-01   3.861386138614e-01   3.960396039604e-01   4.059405940594e-01   4.158415841584e-01   4.257425742574e-01   4.356435643564e-01   4.455445544554e-01   4.554455445545e-01   4.653465346535e-01   4.752475247525e-01   4.851485148515e-01   4.950495049505e-01   5.049504950495e-01   5.148514851485e-01   5.247524752475e-01   5.346534653465e-01   5.445544554455e-01   5.544554455446e-01   5.643564356436e-01   5.742574257426e-01   5.841584158416e-01   5.940594059406e-01   6.039603960396e-01   6.138613861386e-01   6.237623762376e-01   6.336633663366e-01   6.435643564356e-01   6.534653465347e-01   6.633663366337e-01   6.732673267327e-01   6.831683168317e-01   6.930693069307e-01   7.029702970297e-01   7.128712871287e-01   7.227722772277e-01   7.326732673267e-01   7.425742574257e-01   7.524752475248e-01   7.623762376238e-01   7.722772277228e-01   7.821782178218e-01   7.920792079208e-01   8.019801980198e-01   8.118811881188e-01   8.217821782178e-01   8.316831683168e-01   8.415841584158e-01   8.514851485149e-01   8.613861386139e-01   8.712871287129e-01   8.811881188119e-01   8.910891089109e-01   9.009900990099e-01   9.108910891089e-01   9.207920792079e-01   9.306930693069e-01   9.405940594059e-01   9.504950495050e-01   9.603960396040e-01   9.702970297030e-01   9.801980198020e-01   9.900990099010e-01
Z_COORDINATES 1 float
  0.000000000000e+00
POINT_DATA 10201
VECTORS E_field float
  0.000000000000e+00 0.000000000000e+00 0.000000000000e+00
  0.000000000000e+00 0.000000000000e+00 0.000000000000e+00
  0.000000000000e+00 0.000000000000e+00 0.000000000000e+00
  0.000000000000e+00 0.000000000000e+00 0.000000000000e+00
  0.000000000000e+00 0.000000000000e+00 0.000000000000e+00
  0.000000000000e+00 0.000000000000e+00 0.000000000000e+00
  0.000000000000e+00 0.000000000000e+00 0.000000000000e+00
  0.000000000000e+00 0.000000000000e+00 0.000000000000e+00
  0.000000000000e+00 0.000000000000e+00 0.000000000000e+00
  0.000000000000e+00 0.000000000000e+00 0.000000000000e+00
  0.000000000000e+00 0.000000000000e+00 0.000000000000e+00
  0.000000000000e+00 0.000000000000e+00 0.000000000000e+00
  0.000000000000e+00 0.000000000000e+00 0.000000000000e+00
  0.000000000000e+00 0.000000000000e+00 0.000000000000e+00
  0.000000000000e+00 0.000000000000e+00 0.000000000000e+00
  0.000000000000e+00 0.000000000000e+00 0.000000000000e+00
  0.000000000000e+00 0.000000000000e+00 0.000000000000e+00
  0.000000000000e+00 0.000000000000e+00 0.000000000000e+00
  0.000000000000e+00 0.000000000000e+00 0.000000000000e+00
  0.000000000000e+00 0.000000000000e+00 0.000000000000e+00
  0.000000000000e+00 0.000000000000e+00 0.000000000000e+00
  0.000000000000e+00 0.000000000000e+00 0.000000000000e+00
  0.000000000000e+00 0.000000000000e+00 0.000000000000e+00
  0.000000000000e+00 0.000000000000e+00 0.000000000000e+00
  0.000000000000e+00 0.000000000000e+00 0.000000000000e+00
  0.000000000000e+00 0.000000000000e+00 0.000000000000e+00
  0.000000000000e+00 0.000000000000e+00 0.000000000000e+00
  0.000000000000e+00 0.000000000000e+00 0.000000000000e+00
  0.000000000000e+00 0.000000000000e+00 0.000000000000e+00
  0.000000000000e+00 0.000000000000e+00 0.000000000000e+00
  0.000000000000e+00 0.000000000000e+00 0.000000000000e+00
  0.000000000000e+00 0.000000000000e+00 0.000000000000e+00
  0.000000000000e+00 0.000000000000e+00 0.000000000000e+00
  0.000000000000e+00 0.000000000000e+00 0.000000000000e+00
  0.000000000000e+00 0.000000000000e+00 0.000000000000e+00
  0.000000000000e+00 0.000000000000e+00 0.000000000000e+00
  0.000000000000e+00 0.000000000000e+00 0.000000000000e+00
  0.000000000000e+00 0.000000000000e+00 0.000000000000e+00
  0.000000000000e+00 0.000000000000e+00 0.000000000000e+00
  0.000000000000e+00 0.000000000000e+00 0.000000000000e+00
  0.000000000000e+00 0.000000000000e+00 0.000000000000e+00
  0.000000000000e+00 0.000000000000e+00 0.000000000000e+00
  0.000000000000e+00 0.000000000000e+00 0.000000000000e+00
  0.000000000000e+00 0.000000000000e+00 0.000000000000e+00
  0.000000000000e+00 0.000000000000e+00 0.000000000000e+00
  0.000000000000e+00 0.000000000000e+00 0.000000000000e+00
  0.000000000000e+00 0.000000000000e+00 0.000000000000e+00
  0.000000000000e+00 0.000000000000e+00 0.000000000000e+00
  0.000000000000e+00 0.000000000000e+00 0.000000000000e+00
  0.000000000000e+00 0.000000000000e+00 0.000000000000e+00
  0.000000000000e+00 0.000000000000e+00 0.000000000000e+00
  0.000000000000e+00 0.000000000000e+00 0.000000000000e+00
  0.000000000000e+00 0.000000000000e+00 0.000000000000e+00
  0.000000000000e+00 0.000000000000e+00 0.000000000000e+00
  0.000000000000e+00 0.000000000000e+00 0.000000000000e+00
  0.000000000000e+00 0.000000000000e+00 0.000000000000e+00
  0.000000000000e+00 0.000000000000e+00 0.000000000000e+00
  0.000000000000e+00 0.000000000000e+00 0.000000000000e+00
  0.000000000000e+00 0.000000000000e+00 0.000000000000e+00
  0.000000000000e+00 0.000000000000e+00 0.000000000000e+00
  0.000000000000e+00 0.000000000000e+00 0.000000000000e+00
  0.000000000000e+00 0.000000000000e+00 0.000000000000e+00
  0.000000000000e+00 0.000000000000e+00 0.000000000000e+00
  0.000000000000e+00 0.000000000000e+00 0.000000000000e+00
  0.000000000000e+00 0.000000000000e+00 0.000000000000e+00
  0.000000000000e+00 0.000000000000e+00 0.000000000000e+00
  0.000000000000e+00 0.000000000000e+00 0.000000000000e+00
  0.000000000000e+00 0.000000000000e+00 0.000000000000e+00
  0.000000000000e+00 0.000000000000e+00 0.000000000000e+00
  0.000000000000e+00 0.000000000000e+00 0.000000000000e+00
  0.000000000000e+00 0.000000000000e+00 0.000000000000e+00
  0.000000000000e+00 0.000000000000e+00 0.000000000000e+00
  0.000000000000e+00 0.000000000000e+00 0.000000000000e+00
  0.000000000000e+00 0.000000000000e+00 0.000000000000e+00
  0.000000000000e+00 0.000000000000e+00 0.000000000000e+00
  0.000000000000e+00 0.000000000000e+00 0.000000000000e+00
  0.000000000000e+00 0.000000000000e+00 0.000000000000e+00
  0.000000000000e+00 0.000000000000e+00 0.000000000000e+00
  0.000000000000e+00 0.000000000000e+00 0.000000000000e+00
  0.000000000000e+00 0.000000000000e+00 0.000000000000e+00
  0.000000000000e+00 0.000000000000e+00 0.000000000000e+00
  0.000000000000e+00 0.000000000000e+00 0.000000000000e+00
  0.000000000000e+00 0.000000000000e+00 0.000000000000e+00
  0.000000000000e+00 0.000000000000e+00 0.000000000000e+00
  0.000000000000e+00 0.000000000000e+00 0.000000000000e+00
  0.000000000000e+00 0.000000000000e+00 0.000000000000e+00
  0.000000000000e+00 0.000000000000e+00 0.000000000000e+00
  0.000000000000e+00 0.000000000000e+00 0.000000000000e+00
  0.000000000000e+00 0.000000000000e+00 0.000000000000e+00
  0.000000000000e+00 0.000000000000e+00 0.000000000000e+00
  0.000000000000e+00 0.000000000000e+00 0.000000000000e+00
  0.000000000000e+00 0.000000000000e+00 0.000000000000e+00
  0.000000000000e+00 0.000000000000e+00 0.000000000000e+00
  0.000000000000e+00 0.000000000000e+00 0.000000000000e+00
  0.000000000000e+00 0.000000000000e+00 0.000000000000e+00
  0.000000000000e+00 0.000000000000e+00 0.000000000000e+00
  0.000000000000e+00 0.000000000000e+00 0.000000000000e+00
  0.000000000000e+00 0.000000000000e+00 0.000000000000e+00
  0.000000000000e+00 0.000000000000e+00 0.000000000000e+00
  0.000000000000e+00 0.000000000000e+00 0.000000000000e+00
  0.000000000000e+00 0.000000000000e+00 0.000000000000e+00
  0.000000000000e+00 0.000000000000e+00 0.000000000000e+00
  -6.863361048781e-02 6.863361048781e-02 0.000000000000e+00
  -6.498613857377e-02 1.999360297014e-01 0.000000000000e+00
  -5.823038350310e-02 3.144921003599e-01 0.000000000000e+00
  -4.930270160452e-02 4.045744392751e-01 0.000000000000e+00
  -3.930608307784e-02 4.664051062176e-01 0.000000000000e+00
  -2.927360656855e-02 4.998363668788e-01 0.000000000000e+00
  -2.000068115279e-02 5.071156606117e-01 0.000000000000e+00
  -1.198276560415e-02 4.913878534808e-01 0.000000000000e+00
  -5.447788498555e-03 4.556167767887e-01 0.000000000000e+00
  -4.394405301953e-04 4.023112033100e-01 0.000000000000e+00
  3.098085086676e-03 3.340061917134e-01 0.000000000000e+00
  5.265351631683e-03 2.541203418543e-01 0.000000000000e+00
  6.188563406365e-03 1.677036896829e-01 0.000000000000e+00
  6.023533548401e-03 8.166224480799e-02 0.000000000000e+00
  4.965406617699e-03 4.193710518742e-03 0.000000000000e+00
  3.251103264147e-03 -5.662109333627e-02 0.000000000000e+00
  1.147783507087e-03 -9.480278873454e-02 0.000000000000e+00
  -1.073990560512e-03 -1.083690904667e-01 0.000000000000e+00
  -3.177982283750e-03 -1.002440607308e-01 0.000000000000e+00
  -4.999811350327e-03 -7.750978087198e-02 0.000000000000e+00
  -6.469060799635e-03 -4.906625869878e-02 0.000000000000e+00
  -7.604205818202e-03 -2.265262590986e-02 0.000000000000e+00
  -8.480570340354e-03 -2.631001677170e-03 0.000000000000e+00
  -9.185875855928e-03 1.043804788100e-02 0.000000000000e+00
  -9.785240832357e-03 1.843237315384e-02 0.000000000000e+00
  -1.031195865036e-02 2.357124243116e-02 0.000000000000e+00
  -1.078458756581e-02 2.701052385938e-02 0.000000000000e+00
  -1.123428626974e-02 2.899364682952e-02 0.000000000000e+00
  -1.171914301607e-02 3.029510895301e-02 0.000000000000e+00
  -1.230909019603e-02 3.375423439795e-02 0.000000000000e+00
  -1.304230047370e-02 4.457178148091e-02 0.000000000000e+00
  -1.387230518967e-02 6.881105027357e-02 0.000000000000e+00
  -1.463458841660e-02 1.106963438136e-01 0.000000000000e+00
  -1.505694867722e-02 1.700869985436e-01 0.000000000000e+00
  -1.482129203371e-02 2.414489925209e-01 0.000000000000e+00
  -1.366297836072e-02 3.148451454110e-01 0.000000000000e+00
  -1.147630732518e-02 3.784726262996e-01 0.000000000000e+00
  -8.388121713287e-03 4.216793014707e-01 0.000000000000e+00
  -4.768694946605e-03 4.374167325691e-01 0.000000000000e+00
  -1.168352831454e-03 4.235385912133e-01 0.000000000000e+00
  1.806337654975e-03 3.828549762447e-01 0.000000000000e+00
  3.640610889538e-03 3.221668338020e-01 0.000000000000e+00
  4.037606880622e-03 2.506314730455e-01 0.000000000000e+00
  2.984055129190e-03 1.778600752799e-01 0.000000000000e+00
  7.397884794646e-04 1.121655249171e-01 0.000000000000e+00
  -2.237183291709e-03 5.931406352948e-02 0.000000000000e+00
  -5.398820395432e-03 2.195466925213e-02 0.000000000000e+00
  -8.213494123733e-03 -3.229447128506e-04 0.000000000000e+00
  -1.024652939097e-02 -1.049404152379e-02 0.000000000000e+00
  -1.120739785490e-02 -1.337036017438e-02 0.000000000000e+00
  -1.096950853005e-02 -1.477050329719e-02 0.000000000000e+00
  -9.573483954824e-03 -2.065796173653e-02 0.000000000000e+00
  -7.221497244367e-03 -3.628415211711e-02 0.000000000000e+00
  -4.262383657163e-03 -6.536159742030e-02 0.000000000000e+00
  -1.160037520520e-03 -1.093049475688e-01 0.000000000000e+00
  1.563790458188e-03 -1.666397124310e-01 0.000000000000e+00
  3.413909801874e-03 -2.327685885001e-01 0.000000000000e+00
  4.020983104193e-03 -3.003145961463e-01 0.000000000000e+00
  3.229840603330e-03 -3.601549342592e-01 0.000000000000e+00
  1.146450980693e-03 -4.030494300311e-01 0.000000000000e+00
  -1.877849643447e-03 -4.215638646876e-01 0.000000000000e+00
  -5.326536254569e-03 -4.118717803946e-01 0.000000000000e+00
  -8.641890224734e-03 -3.749809259915e-01 0.000000000000e+00
  -1.135656295438e-02 -3.169476705870e-01 0.000000000000e+00
  -1.319332657132e-02 -2.477714320831e-01 0.000000000000e+00
  -1.410413515763e-02 -1.790080811484e-01 0.000000000000e+00
  -1.424032595396e-02 -1.206927447646e-01 0.000000000000e+00
  -1.386967185559e-02 -7.866003422374e-02 0.000000000000e+00
  -1.327410211936e-02 -5.340085949151e-02 0.000000000000e+00
  -1.266643888750e-02 -4.098986945678e-02 0.000000000000e+00
  -1.215283257305e-02 -3.558818046442e-02 0.000000000000e+00
  -1.174481382963e-02 -3.217868263517e-02 0.000000000000e+00
  -1.140222654449e-02 -2.810599030782e-02 0.000000000000e+00
  -1.107728426317e-02 -2.278344405046e-02 0.000000000000e+00
  -1.073573222604e-02 -1.611438558957e-02 0.000000000000e+00
  -1.034923495403e-02 -6.982395851312e-03 0.000000000000e+00
  -9.872444781632e-03 6.941905081858e-03 0.000000000000e+00
  -9.227440356299e-03 2.778075990727e-02 0.000000000000e+00
  -8.312585532570e-03 5.527695312007e-02 0.000000000000e+00
  -7.036701833213e-03 8.532242647035e-02 0.000000000000e+00
  -5.363322571529e-03 1.102816562382e-01 0.000000000000e+00
  -3.343690896709e-03 1.211477840029e-01 0.000000000000e+00
  -1.124055446426e-03 1.105203012983e-01 0.000000000000e+00
  1.073025106227e-03 7.500371052956e-02 0.000000000000e+00
  2.982077694145e-03 1.606155149640e-02 0.000000000000e+00
  4.328900612312e-03 -6.076367507248e-02 0.000000000000e+00
  4.856628040769e-03 -1.476269722781e-01 0.000000000000e+00
  4.341124649300e-03 -2.362939386264e-01 0.000000000000e+00
  2.596673122655e-03 -3.195542084101e-01 0.000000000000e+00
  -5.248426971000e-04 -3.918698507828e-01 0.000000000000e+00
  -5.133309147202e-03 -4.492834892333e-01 0.000000000000e+00
  -1.128410115706e-02 -4.887978174613e-01 0.000000000000e+00
  -1.893191723585e-02 -5.075908046469e-01 0.000000000000e+00
  -2.785443085869e-02 -5.025344272967e-01 0.000000000000e+00
  -3.757116475282e-02 -4.704209491779e-01 0.000000000000e+00
  -4.730550855452e-02 -4.089946777436e-01 0.000000000000e+00
  -5.603807609116e-02 -3.184422750712e-01 0.000000000000e+00
  -6.266909150452e-02 -2.026595753191e-01 0.000000000000e+00
  -6.625710271113e-02 -6.960470302517e-02 0.000000000000e+00
  0.000000000000e+00 0.000000000000e+00 0.000000000000e+00
  0.000000000000e+00 0.000000000000e+00 0.000000000000e+00
  -1.999360297014e-01 6.498613857377e-02 0.000000000000e+00
  -1.895480716156e-01 1.895480716156e-01 0.000000000000e+00
  -1.703002170184e-01 2.988764487779e-01 0.000000000000e+00
  -1.448461921357e-01 3.858083840759e-01 0.000000000000e+00
  -1.163119434215e-01 4.466402941759e-01 0.000000000000e+00
  -8.762472008112e-02 4.808814790709e-01 0.000000000000e+00
  -6.103691343719e-02 4.902098163599e-01 0.000000000000e+00
  -3.794946153251e-02 4.771883302793e-01 0.000000000000e+00
  -1.900525723289e-02 4.443371185851e-01 0.000000000000e+00
  -4.328688580760e-03 3.939059448932e-01 0.000000000000e+00
  6.229688720595e-03 3.283155472120e-01 0.000000000000e+00
  1.293458910494e-02 2.509388194263e-01 0.000000000000e+00
  1.611182863301e-02 1.667847608081e-01 0.000000000000e+00
  1.616416333090e-02 8.269386884288e-02 0.000000000000e+00
  1.360704534935e-02 6.777331396106e-03 0.000000000000e+00
  9.084440098527e-03 -5.296780560925e-02 0.000000000000e+00
  3.342195834132e-03 -9.061051244010e-02 0.000000000000e+00
  -2.847109899173e-03 -1.041502869602e-01 0.000000000000e+00
  -8.795353351574e-03 -9.641062906161e-02 0.000000000000e+00
  -1.401241019004e-02 -7.430432663611e-02 0.000000000000e+00
  -1.827563715872e-02 -4.653923651666e-02 0.000000000000e+00
  -2.161936549158e-02 -2.070077474055e-02 0.000000000000e+00
  -2.424429441275e-02 -1.081559403165e-03 0.000000000000e+00
  -2.638944782682e-02 1.173906453664e-02 0.000000000000e+00
  -2.823106042003e-02 1.957233406783e-02 0.000000000000e+00
  -2.985640532964e-02 2.458334424479e-02 0.000000000000e+00
  -3.131383294521e-02 2.792847857678e-02 0.000000000000e+00
  -3.269137796927e-02 2.990293584011e-02 0.000000000000e+00
  -3.415573266787e-02 3.133503138735e-02 0.000000000000e+00
  -3.590474319095e-02 3.505326966669e-02 0.000000000000e+00
  -3.803851618073e-02 4.613972947972e-02 0.000000000000e+00
  -4.040775007985e-02 7.044234089006e-02 0.000000000000e+00
  -4.252344700032e-02 1.119430333449e-01 0.000000000000e+00
  -4.359569155114e-02 1.703349138246e-01 0.000000000000e+00
  -4.271841347814e-02 2.400881425251e-01 0.000000000000e+00
  -3.915531170246e-02 3.114845799611e-01 0.000000000000e+00
  -3.263542536859e-02 3.731266343852e-01 0.000000000000e+00
  -2.355278300974e-02 4.148544654227e-01 0.000000000000e+00
  -1.298799239938e-02 4.300573512531e-01 0.000000000000e+00
  -2.523688015235e-03 4.168333260495e-01 0.000000000000e+00
  6.105848782177e-03 3.779560141523e-01 0.000000000000e+00
  1.143092997816e-02 3.199064415011e-01 0.000000000000e+00
  1.260172218506e-02 2.513240771963e-01 0.000000000000e+00
  9.575897387602e-03 1.812468477363e-01 0.000000000000e+00
  3.093419141671e-03 1.175054974234e-01 0.000000000000e+00
  -5.531259018515e-03 6.557574102700e-02 0.000000000000e+00
  -1.471441324096e-02 2.803778315372e-02 0.000000000000e+00
  -2.290848067966e-02 4.602682620070e-03 0.000000000000e+00
  -2.883858058443e-02 -7.456533628924e-03 0.000000000000e+00
  -3.164648857258e-02 -1.263909157888e-02 0.000000000000e+00
  -3.095555328906e-02 -1.643059648440e-02 0.000000000000e+00
  -2.688451006652e-02 -2.446493635392e-02 0.000000000000e+00
  -2.003024206306e-02 -4.168343224321e-02 0.000000000000e+00
  -1.141917373026e-02 -7.153249926326e-02 0.000000000000e+00
  -2.408242014903e-03 -1.152473236412e-01 0.000000000000e+00
  5.486665289184e-03 -1.713160717128e-01 0.000000000000e+00
  1.083647235170e-02 -2.352921556978e-01 0.000000000000e+00
  1.258225074176e-02 -3.001438807108e-01 0.000000000000e+00
  1.028317091883e-02 -3.572354274331e-01 0.000000000000e+00
  4.245235286758e-03 -3.978476116548e-01 0.000000000000e+00
  -4.526861611044e-03 -4.149692855837e-01 0.000000000000e+00
  -1.455751602769e-02 -4.049870185023e-01 0.000000000000e+00
  -2.424972398860e-02 -3.688581259754e-01 0.000000000000e+00
  -3.225619297362e-02 -3.123493289040e-01 0.000000000000e+00
  -3.776332603844e-02 -2.450258770945e-01 0.000000000000e+00
  -4.060708231449e-02 -1.779990712809e-01 0.000000000000e+00
  -4.119543435425e-02 -1.209772117997e-01 0.000000000000e+00
  -4.027817334649e-02 -7.966348229689e-02 0.000000000000e+00
  -3.865713486125e-02 -5.461401964097e-02 0.000000000000e+00
  -3.694575405933e-02 -4.209575334168e-02 0.000000000000e+00
  -3.545658059054e-02 -3.648507636303e-02 0.000000000000e+00
  -3.423143242196e-02 -3.291495364868e-02 0.000000000000e+00
  -3.316277403788e-02 -2.878096496359e-02 0.000000000000e+00
  -3.212090964269e-02 -2.347527607122e-02 0.000000000000e+00
  -3.101631668191e-02 -1.686869856672e-02 0.000000000000e+00
  -2.977849413706e-02 -7.852402691032e-03 0.000000000000e+00
  -2.828952230798e-02 5.846149920097e-03 0.000000000000e+00
  -2.633834868327e-02 2.628033701899e-02 0.000000000000e+00
  -2.364585056946e-02 5.317002307081e-02 0.000000000000e+00
  -1.996345783733e-02 8.247108008812e-02 0.000000000000e+00
  -1.520070536794e-02 1.066968708893e-01 0.000000000000e+00
  -9.519123291405e-03 1.170313556004e-01 0.000000000000e+00
  -3.350229528732e-03 1.062482004879e-01 0.000000000000e+00
  2.662738850158e-03 7.106576240847e-02 0.000000000000e+00
  7.765250888814e-03 1.298793499092e-02 0.000000000000e+00
  1.119185840073e-02 -6.246348899709e-02 0.000000000000e+00
  1.223917006417e-02 -1.475021974453e-01 0.000000000000e+00
  1.030393956884e-02 -2.339679795723e-01 0.000000000000e+00
  4.890939814367e-03 -3.147227161831e-01 0.000000000000e+00
  -4.396911712558e-03 -3.842919756632e-01 0.000000000000e+00
  -1.786046342767e-02 -4.387893461877e-01 0.000000000000e+00
  -3.565671549149e-02 -4.753449164332e-01 0.000000000000e+00
  -5.766261235435e-02 -4.913899927334e-01 0.000000000000e+00
  -8.325240394135e-02 -4.842229340003e-01 0.000000000000e+00
  -1.110635730914e-01 -4.512045394301e-01 0.000000000000e+00
  -1.388885368579e-01 -3.906517799231e-01 0.000000000000e+00
  -1.638280897767e-01 -3.031130524362e-01 0.000000000000e+00
  -1.827549054950e-01 -1.924309668224e-01 0.000000000000e+00
  -1.929927478429e-01 -6.600745796749e-02 0.000000000000e+00
  0.000000000000e+00 0.000000000000e+00 0.000000000000e+00
  0.000000000000e+00 0.000000000000e+00 0.000000000000e+00
  -3.144921003599e-01 5.823038350310e-02 0.000000000000e+00
  -2.988764487779e-01 1.703002170184e-01 0.000000000000e+00
  -2.699182530749e-01 2.699182530749e-01 0.000000000000e+00
  -2.315661529734e-01 3.509604547947e-01 0.000000000000e+00
  -1.884728337010e-01 4.098606554703e-01 0.000000000000e+00
  -1.449955882429e-01 4.454966489780e-01 0.000000000000e+00
  -1.044849147355e-01 4.584961663015e-01 0.000000000000e+00
  -6.901974401481e-02 4.503493577123e-01 0.000000000000e+00
  -3.954904900906e-02 4.227611918466e-01 0.000000000000e+00
  -1.625754089901e-02 3.775137948694e-01 0.000000000000e+00
  1.056499170894e-03 3.168352798645e-01 0.000000000000e+00
  1.273342938401e-02 2.440372561764e-01 0.000000000000e+00
  1.916941546199e-02 1.640730984520e-01 0.000000000000e+00
  2.085180822893e-02 8.367080373415e-02 0.000000000000e+00
  1.843595538887e-02 1.077336732644e-02 0.000000000000e+00
  1.279551523211e-02 -4.680079613201e-02 0.000000000000e+00
  5.001867147393e-03 -8.324162956822e-02 0.000000000000e+00
  -3.784013235039e-03 -9.654398371636e-02 0.000000000000e+00
  -1.248904182305e-02 -8.936366026506e-02 0.000000000000e+00
  -2.031806802976e-02 -6.830521238748e-02 0.000000000000e+00
  -2.687731989020e-02 -4.171587193617e-02 0.000000000000e+00
  -3.216971036053e-02 -1.688802051785e-02 0.000000000000e+00
  -3.645974984285e-02 2.020654777615e-03 0.000000000000e+00
  -4.007597915421e-02 1.439823308130e-02 0.000000000000e+00
  -4.325430191429e-02 2.193310087646e-02 0.000000000000e+00
  -4.609905173860e-02 2.669267217010e-02 0.000000000000e+00
  -4.866287587185e-02 2.984040240030e-02 0.000000000000e+00
  -5.106798699577e-02 3.177366816462e-02 0.000000000000e+00
  -5.356020319739e-02 3.342086996318e-02 0.000000000000e+00
  -5.642500380771e-02 3.758124222455e-02 0.000000000000e+00
  -5.978083363861e-02 4.910135974317e-02 0.000000000000e+00
  -6.334906774652e-02 7.341817863502e-02 0.000000000000e+00
  -6.633364027777e-02 1.140674650546e-01 0.000000000000e+00
  -6.750725649498e-02 1.704563428886e-01 0.000000000000e+00
  -6.551468783042e-02 2.370968667341e-01 0.000000000000e+00
  -5.930994136680e-02 3.047080075318e-01 0.000000000000e+00
  -4.858394780980e-02 3.626573269560e-01 0.000000000000e+00
  -3.403281213861e-02 4.016899948745e-01 0.000000000000e+00
  -1.736081779008e-02 4.159850369241e-01 0.000000000000e+00
  -9.908485780121e-04 4.040713669030e-01 0.000000000000e+00
  1.245438633401e-02 3.686432017594e-01 0.000000000000e+00
  2.075993439588e-02 3.155886248642e-01 0.000000000000e+00
  2.263908551834e-02 2.525919507945e-01 0.000000000000e+00
  1.801614271689e-02 1.876277420884e-01 0.000000000000e+00
  8.002613054221e-03 1.276206113818e-01 0.000000000000e+00
  -5.397284647134e-03 7.748520336282e-02 0.000000000000e+00
  -1.973567539908e-02 3.964986622695e-02 0.000000000000e+00
  -3.258607130345e-02 1.403506329148e-02 0.000000000000e+00
  -4.192027305653e-02 -1.624612310872e-03 0.000000000000e+00
  -4.635426388243e-02 -1.122911385454e-02 0.000000000000e+00
  -4.527250464666e-02 -1.961326862723e-02 0.000000000000e+00
  -3.886284108579e-02 -3.176297103229e-02 0.000000000000e+00
  -2.808719227853e-02 -5.201531454780e-02 0.000000000000e+00
  -1.458911151925e-02 -8.330976633885e-02 0.000000000000e+00
  -5.168721787037e-04 -1.265532279956e-01 0.000000000000e+00
  1.176097714351e-02 -1.801829244089e-01 0.000000000000e+00
  2.004092650572e-02 -2.400550598642e-01 0.000000000000e+00
  2.271121135611e-02 -2.997970402041e-01 0.000000000000e+00
  1.911274650349e-02 -3.516847236408e-01 0.000000000000e+00
  9.716839225082e-03 -3.879644728557e-01 0.000000000000e+00
  -3.956679922769e-03 -4.024068085933e-01 0.000000000000e+00
  -1.967914749735e-02 -3.917963736969e-01 0.000000000000e+00
  -3.502613310073e-02 -3.570095773585e-01 0.000000000000e+00
  -4.792335204821e-02 -3.032941896866e-01 0.000000000000e+00
  -5.707277526161e-02 -2.394244600984e-01 0.000000000000e+00
  -6.214107712413e-02 -1.756884301792e-01 0.000000000000e+00
  -6.366619955851e-02 -1.211743784517e-01 0.000000000000e+00
  -6.273091907722e-02 -8.131885714788e-02 0.000000000000e+00
  -6.053321238574e-02 -5.677738997429e-02 0.000000000000e+00
  -5.801590999977e-02 -4.416106620018e-02 0.000000000000e+00
  -5.568154844638e-02 -3.824329852866e-02 0.000000000000e+00
  -5.362496130003e-02 -3.443846679891e-02 0.000000000000e+00
  -5.171218401297e-02 -3.023888748492e-02 0.000000000000e+00
  -4.977546704178e-02 -2.499593491645e-02 0.000000000000e+00
  -4.771162139326e-02 -1.851647833086e-02 0.000000000000e+00
  -4.545040184584e-02 -9.703665019187e-03 0.000000000000e+00
  -4.285029888194e-02 3.608337455258e-03 0.000000000000e+00
  -3.962539255049e-02 2.334206952766e-02 0.000000000000e+00
  -3.538303620071e-02 4.917343609854e-02 0.000000000000e+00
  -2.977710704127e-02 7.717934516883e-02 0.000000000000e+00
  -2.270561582425e-02 1.001543621222e-01 0.000000000000e+00
  -1.445267864308e-02 1.096393451098e-01 0.000000000000e+00
  -5.707775308693e-03 9.872641388139e-02 0.000000000000e+00
  2.536887740651e-03 6.432991758671e-02 0.000000000000e+00
  9.153516753723e-03 8.004638760947e-03 0.000000000000e+00
  1.303878344022e-02 -6.479206696552e-02 0.000000000000e+00
  1.321955858634e-02 -1.464017062865e-01 0.000000000000e+00
  8.892566567451e-03 -2.288062482170e-01 0.000000000000e+00
  -5.887953459492e-04 -3.049900858705e-01 0.000000000000e+00
  -1.575131571586e-02 -3.695742340789e-01 0.000000000000e+00
  -3.701463760053e-02 -4.187802141722e-01 0.000000000000e+00
  -6.461448340174e-02 -4.499579505837e-01 0.000000000000e+00
  -9.838289466712e-02 -4.610026504547e-01 0.000000000000e+00
  -1.373984054970e-01 -4.500049738622e-01 0.000000000000e+00
  -1.796267783117e-01 -4.153829576035e-01 0.000000000000e+00
  -2.217599602681e-01 -3.565152160267e-01 0.000000000000e+00
  -2.594525978108e-01 -2.746174258712e-01 0.000000000000e+00
  -2.880216804766e-01 -1.734306950032e-01 0.000000000000e+00
  -3.034638389277e-01 -5.932772898767e-02 0.000000000000e+00
  0.000000000000e+00 0.000000000000e+00 0.000000000000e+00
  0.000000000000e+00 0.000000000000e+00 0.000000000000e+00
  -4.045744392751e-01 4.930270160452e-02 0.000000000000e+00
  -3.858083840759e-01 1.448461921357e-01 0.000000000000e+00
  -3.509604547947e-01 2.315661529734e-01 0.000000000000e+00
  -3.046976786086e-01 3.046976786086e-01 0.000000000000e+00
  -2.525267718405e-01 3.608592056159e-01 0.000000000000e+00
  -1.996123828727e-01 3.981064644065e-01 0.000000000000e+00
  -1.499288024881e-01 4.156920969811e-01 0.000000000000e+00
  -1.059378086603e-01 4.136972624842e-01 0.000000000000e+00
  -6.875430297576e-02 3.927590863845e-01 0.000000000000e+00
  -3.859108386003e-02 3.540611731058e-01 0.000000000000e+00
  -1.523049132765e-02 2.996132690258e-01 0.000000000000e+00
  1.656691508031e-03 2.326951539662e-01 0.000000000000e+00
  1.240229950452e-02 1.582336065877e-01 0.000000000000e+00
  1.739742839390e-02 8.283277394213e-02 0.000000000000e+00
  1.722213518321e-02 1.420254316922e-02 0.000000000000e+00
  1.275296384199e-02 -4.012036047681e-02 0.000000000000e+00
  5.175111028632e-03 -7.455056432535e-02 0.000000000000e+00
  -4.135853665357e-03 -8.713820388282e-02 0.000000000000e+00
  -1.384326244669e-02 -8.035700272926e-02 0.000000000000e+00
  -2.291052012136e-02 -6.041558604190e-02 0.000000000000e+00