# vtk DataFile Version 3.0
Karman Output
ASCII
DATASET RECTILINEAR_GRID
DIMENSIONS 101 101 1
X_COORDINATES 101 float
   0.000000000000e+00   9.900990099010e-03   1.980198019802e-02   2.970297029703e-02   3.960396039604e-02   4.950495049505e-02   5.940594059406e-02   6.930693069307e-02   7.920792079208e-02   8.910891089109e-02   9.900990099010e-02   1.089108910891e-01   1.188118811881e-01   1.287128712871e-01   1.386138613861e-01   1.485148514851e-01   1.584158415842e-01   1.683168316832e-01   1.782178217822e-01   1.881188118812e-01   1.980198019802e-01   2.079207920792e-01   2.178217821782e-01   2.277227722772e-01   2.376237623762e-01   2.475247524752e-01   2.574257425743e-01   2.673267326733e-01   2.772277227723e-01   2.871287128713e-01   2.970297029703e-01   3.069306930693e-01   3.168316831683e-01   3.267326732673e-01   3.366336633663e-01   3.465346534653e-01   3.564356435644e-01   3.663366336634e-01   3.762376237624e-01   3.861386138614e-01   3.960396039604e-01   4.059405940594e-01   4.158415841584e-01   4.257425742574e-01   4.356435643564e-01   4.455445544554e-01   4.554455445545e-01   4.653465346535e-01   4.752475247525e-01   4.851485148515e-01   4.950495049505e-01   5.049504950495e-01   5.148514851485e-01   5.247524752475e-01   5.346534653465e-01   5.445544554455e-01   5.544554455446e-01   5.643564356436e-01   5.742574257426e-01   5.841584158416e-01   5.940594059406e-01   6.039603960396e-01   6.138613861386e-01   6.237623762376e-01   6.336633663366e-01   6.435643564356e-01   6.534653465347e-01   6.633663366337e-01   6.732673267327e-01   6.831683168317e-01   6.930693069307e-01   7.029702970297e-01   7.128712871287e-01   7.227722772277e-01   7.326732673267e-01   7.425742574257e-01   7.524752475248e-01   7.623762376238e-01   7.722772277228e-01   7.821782178218e-01   7.920792079208e-01   8.019801980198e-01   8.118811881188e-01   8.217821782178e-01   8.316831683168e-01   8.415841584158e-01   8.514851485149e-01   8.613861386139e-01   8.712871287129e-01   8.811881188119e-01   8.910891089109e-01   9.009900990099e-01   9.108910891089e-01   9.207920792079e-01   9.306930693069e-01   9.405940594059e-01   9.504950495050e-01   9.603960396040e-01   9.702970297030e-01   9.801980198020e-01   9.900990099010e-01
Y_COORDINATES 101 float
   0.000000000000e+00   9.900990099010e-03   1.980198019802e-02   2.970297029703e-02   3.960396039604e-02   4.950495049505e-02   5.940594059406e-02   6.930693069307e-02   7.920792079208e-02   8.910891089109e-02   9.900990099010e-02   1.089108910891e-01   1.188118811881e-01   1.287128712871e-01   1.386138613861e-01   1.485148514851e-01   1.584158415842e-01   1.683168316832e-01   1.782178217822e-01   1.881188118812e-01   1.980198019802e-01   2.079207920792e-01   2.178217821782e-01   2.277227722772e-01   2.376237623762e-01   2.475247524752e-01   2.574257425743e-01   2.673267326733e-01   2.772277227723e-01   2.871287128713e-01   2.970297029703e-01   3.069306930693e-01   3.168316831683e-01   3.267326732673e-01   3.366336633663e-01   3.465346534653e-01   3.564356435644e-01   3.663366336634e-01   3.762376237624e-01   3.861386138614e-01   3.960396039604e-01   4.059405940594e-01   4.158415841584e-01   4.257425742574e-01   4.356435643564e-01   4.455445544554e-01   4.554455445545e-01   4.653465346535e-01   4.752475247525e-01   4.851485148515e-01   4.950495049505e-01   5.049504950495e-01   5.148514851485e-01   5.247524752475e-01   5.346534653465e-01   5.445544554455e-01   5.544554455446e-01   5.643564356436e-01   5.742574257426e-01   5.841584158416e-01   5.940594059406e-01   6.039603960396e-01   6.138613861386e-01   6.237623762376e-01   6.336633663366e-01   6.435643564356e-01   6.534653465347e-01   6.633663366337e-01   6.732673267327e-01   6.831683168317e-01   6.930693069307e-01   7.029702970297e-01   7.128712871287e-01   7.227722772277e-01   7.326732673267e-01   7.425742574257e-01   7.524752475248e-01   7.623762376238e-01   7.722772277228e-01   7.821782178218e-01   7.920792079208e-01   8.019801980198e-01   8.118811881188e-01   8.217821782178e-01   8.316831683168e-01   8.415841584158e-01   8.514851485149e-01   8.613861386139e-01   8.712871287129e-01   8.811881188119e-01   8.910891089109e-01   9.009900990099e-01   9.108910891089e-01   9.207920792079e-01   9.306930693069e-01   9.405940594059e-01   9.504950495050e-01   9.603960396040e-01   9.702970297030e-01   9.801980198020e-01   9.900990099010e-01
Z_COORDINATES 1 float
  0.000000000000e+00
POINT_DATA 10201
VECTORS E_field float
  0.000000000000e+00 0.000000000000e+00 0.000000000000e+00
  0.000000000000e+00 0.000000000000e+00 0.000000000000e+00
  0.000000000000e+00 0.000000000000e+00 0.000000000000e+00
  0.000000000000e+00 0.000000000000e+00 0.000000000000e+00
  0.000000000000e+00 0.000000000000e+00 0.000000000000e+00
  0.000000000000e+00 0.000000000000e+00 0.000000000000e+00
  0.000000000000e+00 0.000000000000e+00 0.000000000000e+00
  0.000000000000e+00 0.000000000000e+00 0.000000000000e+00
  0.000000000000e+00 0.000000000000e+00 0.000000000000e+00
  0.000000000000e+00 0.000000000000e+00 0.000000000000e+00
  0.000000000000e+00 0.000000000000e+00 0.000000000000e+00
  0.000000000000e+00 0.000000000000e+00 0.000000000000e+00
  0.000000000000e+00 0.000000000000e+00 0.000000000000e+00
  0.000000000000e+00 0.000000000000e+00 0.000000000000e+00
  0.000000000000e+00 0.000000000000e+00 0.000000000000e+00
  0.000000000000e+00 0.000000000000e+00 0.000000000000e+00
  0.000000000000e+00 0.000000000000e+00 0.000000000000e+00
  0.000000000000e+00 0.000000000000e+00 0.000000000000e+00
  0.000000000000e+00 0.000000000000e+00 0.000000000000e+00
  0.000000000000e+00 0.000000000000e+00 0.000000000000e+00
  0.000000000000e+00 0.000000000000e+00 0.000000000000e+00
  0.000000000000e+00 0.000000000000e+00 0.000000000000e+00
  0.000000000000e+00 0.000000000000e+00 0.000000000000e+00
  0.000000000000e+00 0.000000000000e+00 0.000000000000e+00
  0.000000000000e+00 0.000000000000e+00 0.000000000000e+00
  0.000000000000e+00 0.000000000000e+00 0.000000000000e+00
  0.000000000000e+00 0.000000000000e+00 0.000000000000e+00
  0.000000000000e+00 0.000000000000e+00 0.000000000000e+00
  0.000000000000e+00 0.000000000000e+00 0.000000000000e+00
  0.000000000000e+00 0.000000000000e+00 0.000000000000e+00
  0.000000000000e+00 0.000000000000e+00 0.000000000000e+00
  0.000000000000e+00 0.000000000000e+00 0.000000000000e+00
  0.000000000000e+00 0.000000000000e+00 0.000000000000e+00
  0.000000000000e+00 0.000000000000e+00 0.000000000000e+00
  0.000000000000e+00 0.000000000000e+00 0.000000000000e+00
  0.000000000000e+00 0.000000000000e+00 0.000000000000e+00
  0.000000000000e+00 0.000000000000e+00 0.000000000000e+00
  0.000000000000e+00 0.000000000000e+00 0.000000000000e+00
  0.000000000000e+00 0.000000000000e+00 0.000000000000e+00
  0.000000000000e+00 0.000000000000e+00 0.000000000000e+00
  0.000000000000e+00 0.000000000000e+00 0.000000000000e+00
  0.000000000000e+00 0.000000000000e+00 0.000000000000e+00
  0.000000000000e+00 0.000000000000e+00 0.000000000000e+00
  0.000000000000e+00 0.000000000000e+00 0.000000000000e+00
  0.000000000000e+00 0.000000000000e+00 0.000000000000e+00
  0.000000000000e+00 0.000000000000e+00 0.000000000000e+00
  0.000000000000e+00 0.000000000000e+00 0.000000000000e+00
  0.000000000000e+00 0.000000000000e+00 0.000000000000e+00
  0.000000000000e+00 0.000000000000e+00 0.000000000000e+00
  0.000000000000e+00 0.000000000000e+00 0.000000000000e+00
  0.000000000000e+00 0.000000000000e+00 0.000000000000e+00
  0.000000000000e+00 0.000000000000e+00 0.000000000000e+00
  0.000000000000e+00 0.000000000000e+00 0.000000000000e+00
  0.000000000000e+00 0.000000000000e+00 0.000000000000e+00
  0.000000000000e+00 0.000000000000e+00 0.000000000000e+00
  0.000000000000e+00 0.000000000000e+00 0.000000000000e+00
  0.000000000000e+00 0.000000000000e+00 0.000000000000e+00
  0.000000000000e+00 0.000000000000e+00 0.000000000000e+00
  0.000000000000e+00 0.000000000000e+00 0.000000000000e+00
  0.000000000000e+00 0.000000000000e+00 0.000000000000e+00
  0.000000000000e+00 0.000000000000e+00 0.000000000000e+00
  0.000000000000e+00 0.000000000000e+00 0.000000000000e+00
  0.000000000000e+00 0.000000000000e+00 0.000000000000e+00
  0.000000000000e+00 0.000000000000e+00 0.000000000000e+00
  0.000000000000e+00 0.000000000000e+00 0.000000000000e+00
  0.000000000000e+00 0.000000000000e+00 0.000000000000e+00
  0.000000000000e+00 0.000000000000e+00 0.000000000000e+00
  0.000000000000e+00 0.000000000000e+00 0.000000000000e+00
  0.000000000000e+00 0.000000000000e+00 0.000000000000e+00
  0.000000000000e+00 0.000000000000e+00 0.000000000000e+00
  0.000000000000e+00 0.000000000000e+00 0.000000000000e+00
  0.000000000000e+00 0.000000000000e+00 0.000000000000e+00
  0.000000000000e+00 0.000000000000e+00 0.000000000000e+00
  0.000000000000e+00 0.000000000000e+00 0.000000000000e+00
  0.000000000000e+00 0.000000000000e+00 0.000000000000e+00
  0.000000000000e+00 0.000000000000e+00 0.000000000000e+00
  0.000000000000e+00 0.000000000000e+00 0.000000000000e+00
  0.000000000000e+00 0.000000000000e+00 0.000000000000e+00
  0.000000000000e+00 0.000000000000e+00 0.000000000000e+00
  0.000000000000e+00 0.000000000000e+00 0.000000000000e+00
  0.000000000000e+00 0.000000000000e+00 0.000000000000e+00
  0.000000000000e+00 0.000000000000e+00 0.000000000000e+00
  0.000000000000e+00 0.000000000000e+00 0.000000000000e+00
  0.000000000000e+00 0.000000000000e+00 0.000000000000e+00
  0.000000000000e+00 0.000000000000e+00 0.000000000000e+00
  0.000000000000e+00 0.000000000000e+00 0.000000000000e+00
  0.000000000000e+00 0.000000000000e+00 0.000000000000e+00
  0.000000000000e+00 0.000000000000e+00 0.000000000000e+00
  0.000000000000e+00 0.000000000000e+00 0.000000000000e+00
  0.000000000000e+00 0.000000000000e+00 0.000000000000e+00
  0.000000000000e+00 0.000000000000e+00 0.000000000000e+00
  0.000000000000e+00 0.000000000000e+00 0.000000000000e+00
  0.000000000000e+00 0.000000000000e+00 0.000000000000e+00
  0.000000000000e+00 0.000000000000e+00 0.000000000000e+00
  0.000000000000e+00 0.000000000000e+00 0.000000000000e+00
  0.000000000000e+00 0.000000000000e+00 0.000000000000e+00
  0.000000000000e+00 0.000000000000e+00 0.000000000000e+00
  0.000000000000e+00 0.000000000000e+00 0.000000000000e+00
  0.000000000000e+00 0.000000000000e+00 0.000000000000e+00
  0.000000000000e+00 0.000000000000e+00 0.000000000000e+00
  0.000000000000e+00 0.000000000000e+00 0.000000000000e+00
  0.000000000000e+00 0.000000000000e+00 0.000000000000e+00
  1.042616365946e-02 -1.042616365946e-02 0.000000000000e+00
  9.676382666567e-03 -2.691171167987e-02 0.000000000000e+00
  8.342871929549e-03 -3.202485157936e-02 0.000000000000e+00
  6.684365785611e-03 -2.315288057096e-02 0.000000000000e+00
  4.941989371646e-03 -2.767239733082e-03 0.000000000000e+00
  3.246086504746e-03 2.305565587806e-02 0.000000000000e+00
  1.583644911067e-03 4.742928642358e-02 0.000000000000e+00
  -1.633077253432e-04 6.535417985144e-02 0.000000000000e+00
  -2.135127006757e-03 7.511700747406e-02 0.000000000000e+00
  -4.414600067751e-03 7.800770210816e-02 0.000000000000e+00
  -6.988528225127e-03 7.687562556424e-02 0.000000000000e+00
  -9.760975503969e-03 7.451052571207e-02 0.000000000000e+00
  -1.259862663559e-02 7.265963302119e-02 0.000000000000e+00
  -1.537659319510e-02 7.191169481049e-02 0.000000000000e+00
  -1.800255982314e-02 7.214172648221e-02 0.000000000000e+00
  -2.041699511507e-02 7.303441145287e-02 0.000000000000e+00
  -2.258144903518e-02 7.437984857357e-02 0.000000000000e+00
  -2.446815556942e-02 7.611795070527e-02 0.000000000000e+00
  -2.605643779436e-02 7.826736515419e-02 0.000000000000e+00
  -2.733387862332e-02 8.086208010133e-02 0.000000000000e+00
  -2.829810005640e-02 8.393184169058e-02 0.000000000000e+00
  -2.895703989914e-02 8.750588000896e-02 0.000000000000e+00
  -2.932796569497e-02 9.161762197393e-02 0.000000000000e+00
  -2.943611636888e-02 9.630668400351e-02 0.000000000000e+00
  -2.931341324929e-02 1.016230208885e-01 0.000000000000e+00
  -2.899733178454e-02 1.076356069381e-01 0.000000000000e+00
  -2.853008308335e-02 1.144454929226e-01 0.000000000000e+00
  -2.795835168722e-02 1.222043670679e-01 0.000000000000e+00
  -2.733354144315e-02 1.311417214475e-01 0.000000000000e+00
  -2.671135206543e-02 1.416029648266e-01 0.000000000000e+00
  -2.614733739197e-02 1.540923615057e-01 0.000000000000e+00
  -2.568310159148e-02 1.692900980875e-01 0.000000000000e+00
  -2.531935477102e-02 1.879722470369e-01 0.000000000000e+00
  -2.498049095326e-02 2.107348706595e-01 0.000000000000e+00
  -2.448895978796e-02 2.374651982363e-01 0.000000000000e+00
  -2.357697243394e-02 2.666514643500e-01 0.000000000000e+00
  -2.195561788738e-02 2.948333349718e-01 0.000000000000e+00
  -1.943336834022e-02 3.166242664808e-01 0.000000000000e+00
  -1.603996743282e-02 3.256291788850e-01 0.000000000000e+00
  -1.209216970807e-02 3.162032812249e-01 0.000000000000e+00
  -8.153347961917e-03 2.855169715548e-01 0.000000000000e+00
  -4.886290535130e-03 2.350940576920e-01 0.000000000000e+00
  -2.851751746226e-03 1.710913025783e-01 0.000000000000e+00
  -2.333097519118e-03 1.030701353227e-01 0.000000000000e+00
  -3.254182479749e-03 4.162851958872e-02 0.000000000000e+00
  -5.213294922294e-03 -4.305783152094e-03 0.000000000000e+00
  -7.607405005103e-03 -2.966032892418e-02 0.000000000000e+00
  -9.793149477737e-03 -3.430385737339e-02 0.000000000000e+00
  -1.123274390697e-02 -2.288143598129e-02 0.000000000000e+00
  -1.159491266711e-02 -3.601120641349e-03 0.000000000000e+00
  -1.080496641553e-02 1.365238753522e-02 0.000000000000e+00
  -9.050496440596e-03 1.947938556201e-02 0.000000000000e+00
  -6.747747236806e-03 7.031642951170e-03 0.000000000000e+00
  -4.467372047206e-03 -2.638403355091e-02 0.000000000000e+00
  -2.818979196683e-03 -7.853888078253e-02 0.000000000000e+00
  -2.307582868504e-03 -1.426504841387e-01 0.000000000000e+00
  -3.196284126620e-03 -2.089467494044e-01 0.000000000000e+00
  -5.423446678713e-03 -2.671034469446e-01 0.000000000000e+00
  -8.614596321139e-03 -3.088572609163e-01 0.000000000000e+00
  -1.219605862767e-02 -3.299423982629e-01 0.000000000000e+00
  -1.557272800716e-02 -3.307078282860e-01 0.000000000000e+00
  -1.830099646038e-02 -3.152913777301e-01 0.000000000000e+00
  -2.018979809541e-02 -2.898088446537e-01 0.000000000000e+00
  -2.129872133202e-02 -2.603584180779e-01 0.000000000000e+00
  -2.185158608045e-02 -2.315779871026e-01 0.000000000000e+00
  -2.211816539381e-02 -2.061032234167e-01 0.000000000000e+00
  -2.231868978233e-02 -1.848140657931e-01 0.000000000000e+00
  -2.258019809499e-02 -1.674787767842e-01 0.000000000000e+00
  -2.294127315175e-02 -1.533989863736e-01 0.000000000000e+00
  -2.338205097927e-02 -1.418361688406e-01 0.000000000000e+00
  -2.385588549947e-02 -1.321969212647e-01 0.000000000000e+00
  -2.431031043423e-02 -1.240616463445e-01 0.000000000000e+00
  -2.469650977273e-02 -1.171496974146e-01 0.000000000000e+00
  -2.497195113945e-02 -1.112755445308e-01 0.000000000000e+00
  -2.510065763997e-02 -1.063143054622e-01 0.000000000000e+00
  -2.505336901819e-02 -1.021777406299e-01 0.000000000000e+00
  -2.480811783299e-02 -9.879755113179e-02 0.000000000000e+00
  -2.435102729416e-02 -9.611336928712e-02 0.000000000000e+00
  -2.367704202201e-02 -9.406489955886e-02 0.000000000000e+00
  -2.279046833901e-02 -9.258843208116e-02 0.000000000000e+00
  -2.170524660194e-02 -9.161491549521e-02 0.000000000000e+00
  -2.044449133217e-02 -9.106511521350e-02 0.000000000000e+00
  -1.903847863826e-02 -9.084782878749e-02 0.000000000000e+00
  -1.752121871090e-02 -9.088479185094e-02 0.000000000000e+00
  -1.592835751614e-02 -9.117698943677e-02 0.000000000000e+00
  -1.430087651183e-02 -9.186220338532e-02 0.000000000000e+00
  -1.269589554013e-02 -9.313081270413e-02 0.000000000000e+00
  -1.119736252660e-02 -9.487918846754e-02 0.000000000000e+00
  -9.912037388494e-03 -9.617178283261e-02 0.000000000000e+00
  -8.939516028079e-03 -9.487231567040e-02 0.000000000000e+00
  -8.322007003860e-03 -8.793826396205e-02 0.000000000000e+00
  -8.000305794642e-03 -7.262222458911e-02 0.000000000000e+00
  -7.809743053134e-03 -4.823130864595e-02 0.000000000000e+00
  -7.533463977351e-03 -1.752809768490e-02 0.000000000000e+00
  -6.997128151669e-03 1.323397246085e-02 0.000000000000e+00
  -6.159937512040e-03 3.607881692067e-02 0.000000000000e+00
  -5.151977645994e-03 4.435238087480e-02 0.000000000000e+00
  -4.232218960120e-03 3.571546846016e-02 0.000000000000e+00
  -3.681895073183e-03 1.361340741561e-02 0.000000000000e+00
  0.000000000000e+00 0.000000000000e+00 0.000000000000e+00
  0.000000000000e+00 0.000000000000e+00 0.000000000000e+00
  2.691171167987e-02 -9.676382666567e-03 0.000000000000e+00
  2.484609828002e-02 -2.484609828002e-02 0.000000000000e+00
  2.120099768199e-02 -2.911185364415e-02 0.000000000000e+00
  1.673228557005e-02 -1.993866025029e-02 0.000000000000e+00
  1.214011598313e-02 3.530859471452e-04 0.000000000000e+00
  7.793546623837e-03 2.597780242402e-02 0.000000000000e+00
  3.633577677895e-03 5.032955041724e-02 0.000000000000e+00
  -7.142540096590e-04 6.854870018174e-02 0.000000000000e+00
  -5.695907269412e-03 7.887595968492e-02 0.000000000000e+00
  -1.159095045250e-02 8.242326614138e-02 0.000000000000e+00
  -1.839571716735e-02 8.183875640323e-02 0.000000000000e+00
  -2.585848563316e-02 7.978261061773e-02 0.000000000000e+00
  -3.361043446628e-02 7.797714808027e-02 0.000000000000e+00
  -4.129985967174e-02 7.706157151638e-02 0.000000000000e+00
  -4.866421422343e-02 7.698217095606e-02 0.000000000000e+00
  -5.553220290482e-02 7.747639095233e-02 0.000000000000e+00
  -6.179035403905e-02 7.836047412845e-02 0.000000000000e+00
  -6.735272629654e-02 7.958640394213e-02 0.000000000000e+00
  -7.215034823461e-02 8.118481608033e-02 0.000000000000e+00
  -7.613494766961e-02 8.320666943915e-02 0.000000000000e+00
  -7.928495371239e-02 8.570147982864e-02 0.000000000000e+00
  -8.160739827532e-02 8.871762627657e-02 0.000000000000e+00
  -8.313614634155e-02 9.230554956839e-02 0.000000000000e+00
  -8.392891000433e-02 9.651967074574e-02 0.000000000000e+00
  -8.406431101276e-02 1.014227320351e-01 0.000000000000e+00
  -8.363926092055e-02 1.070947642346e-01 0.000000000000e+00
  -8.276705374047e-02 1.136468797449e-01 0.000000000000e+00
  -8.157674663394e-02 1.212409417429e-01 0.000000000000e+00
  -8.021338154659e-02 1.301169714411e-01 0.000000000000e+00
  -7.883524408454e-02 1.406273879933e-01 0.000000000000e+00
  -7.759840676813e-02 1.532670863493e-01 0.000000000000e+00
  -7.661395850464e-02 1.686666891802e-01 0.000000000000e+00
  -7.586887205388e-02 1.874868226734e-01 0.000000000000e+00
  -7.512591889965e-02 2.101384780519e-01 0.000000000000e+00
  -7.385574602781e-02 2.362998868085e-01 0.000000000000e+00
  -7.127837976192e-02 2.643274221609e-01 0.000000000000e+00
  -6.656814104390e-02 2.908257839014e-01 0.000000000000e+00
  -5.919562572917e-02 3.107370526976e-01 0.000000000000e+00
  -4.927957430454e-02 3.182069403492e-01 0.000000000000e+00
  -3.776824955657e-02 3.081663973075e-01 0.000000000000e+00
  -2.631579367819e-02 2.781625778754e-01 0.000000000000e+00
  -1.685388325416e-02 2.297194835580e-01 0.000000000000e+00
  -1.100992899412e-02 1.685873837113e-01 0.000000000000e+00
  -9.601651631180e-03 1.036471226579e-01 0.000000000000e+00
  -1.240024931217e-02 4.477121496208e-02 0.000000000000e+00
  -1.822825082617e-02 3.386355034735e-04 0.000000000000e+00
  -2.531919445649e-02 -2.481969379367e-02 0.000000000000e+00
  -3.178588092672e-02 -3.049206149352e-02 0.000000000000e+00
  -3.604761767814e-02 -2.099190062474e-02 0.000000000000e+00
  -3.712847300123e-02 -4.047631876373e-03 0.000000000000e+00
  -3.480715730468e-02 1.098763683877e-02 0.000000000000e+00
  -2.963519012033e-02 1.521769909235e-02 0.000000000000e+00
  -2.283729764916e-02 2.192687716300e-03 0.000000000000e+00
  -1.609124401022e-02 -3.057150719362e-02 0.000000000000e+00
  -1.118747189560e-02 -8.090357216831e-02 0.000000000000e+00
  -9.608667672861e-03 -1.423759933752e-01 0.000000000000e+00
  -1.212974367020e-02 -2.058114629857e-01 0.000000000000e+00
  -1.857757792015e-02 -2.615637366311e-01 0.000000000000e+00
  -2.786561035811e-02 -3.019177892117e-01 0.000000000000e+00
  -3.832252754352e-02 -3.228434905279e-01 0.000000000000e+00
  -4.820646426481e-02 -3.245461299619e-01 0.000000000000e+00
  -5.620664730971e-02 -3.107246245876e-01 0.000000000000e+00
  -6.173988681641e-02 -2.869535566772e-01 0.000000000000e+00
  -6.495174343845e-02 -2.588929262113e-01 0.000000000000e+00
  -6.647310486018e-02 -2.309692528091e-01 0.000000000000e+00
  -6.708133635930e-02 -2.058371469040e-01 0.000000000000e+00
  -6.742234980851e-02 -1.845386044717e-01 0.000000000000e+00
  -6.787875948279e-02 -1.670363201207e-01 0.000000000000e+00
  -6.857725271804e-02 -1.527818747462e-01 0.000000000000e+00
  -6.947136149367e-02 -1.411183938654e-01 0.000000000000e+00
  -7.043246389872e-02 -1.314797593149e-01 0.000000000000e+00
  -7.131234415762e-02 -1.234445031008e-01 0.000000000000e+00
  -7.197322002889e-02 -1.167197654486e-01 0.000000000000e+00
  -7.229732930748e-02 -1.111059258515e-01 0.000000000000e+00
  -7.218859987847e-02 -1.064639470700e-01 0.000000000000e+00
  -7.157314170900e-02 -1.026908458134e-01 0.000000000000e+00
  -7.040044599027e-02 -9.970239285226e-02 0.000000000000e+00
  -6.864497060278e-02 -9.742109349298e-02 0.000000000000e+00
  -6.630738924122e-02 -9.576874198672e-02 0.000000000000e+00
  -6.341519747972e-02 -9.466335509782e-02 0.000000000000e+00
  -6.002247326371e-02 -9.401793843163e-02 0.000000000000e+00
  -5.620749670229e-02 -9.373782410828e-02 0.000000000000e+00
  -5.206602104714e-02 -9.372260824177e-02 0.000000000000e+00
  -4.770088622892e-02 -9.389240714225e-02 0.000000000000e+00
  -4.321614212626e-02 -9.424697944288e-02 0.000000000000e+00
  -3.872847079134e-02 -9.490736571844e-02 0.000000000000e+00
  -3.439906177727e-02 -9.602004035679e-02 0.000000000000e+00
  -3.046426729608e-02 -9.742328830960e-02 0.000000000000e+00
  -2.722246330350e-02 -9.815481212123e-02 0.000000000000e+00
  -2.494511386350e-02 -9.613915718220e-02 0.000000000000e+00
  -2.372994800959e-02 -8.850409732837e-02 0.000000000000e+00
  -2.337427452977e-02 -7.273376591183e-02 0.000000000000e+00
  -2.336689427412e-02 -4.831771032038e-02 0.000000000000e+00
  -2.304819344316e-02 -1.803667591721e-02 0.000000000000e+00
  -2.189045896719e-02 1.204848039151e-02 0.000000000000e+00
  -1.976549194252e-02 3.430215132571e-02 0.000000000000e+00
  -1.705291470767e-02 4.240850936886e-02 0.000000000000e+00
  -1.451454650047e-02 3.420121307302e-02 0.000000000000e+00
  -1.297884085257e-02 1.304163326791e-02 0.000000000000e+00
  0.000000000000e+00 0.000000000000e+00 0.000000000000e+00
  0.000000000000e+00 0.000000000000e+00 0.000000000000e+00
  3.202485157936e-02 -8.342871929549e-03 0.000000000000e+00
  2.911185364415e-02 -2.120099768199e-02 0.000000000000e+00
  2.406018058635e-02 -2.406018058635e-02 0.000000000000e+00
  1.806984937633e-02 -1.453128998614e-02 0.000000000000e+00
  1.224144288920e-02 5.366291757043e-03 0.000000000000e+00
  7.130213367887e-03 3.042239549472e-02 0.000000000000e+00
  2.586377491025e-03 5.458876216934e-02 0.000000000000e+00
  -2.066438888808e-03 7.329013649703e-02 0.000000000000e+00
  -7.637765952962e-03 8.468750369354e-02 0.000000000000e+00
  -1.468122997852e-02 8.955022934141e-02 0.000000000000e+00
  -2.329556482153e-02 9.013089476105e-02 0.000000000000e+00
  -3.316907772804e-02 8.882675363223e-02 0.000000000000e+00
  -4.378160690301e-02 8.729748307386e-02 0.000000000000e+00
  -5.461783099572e-02 8.626688582095e-02 0.000000000000e+00
  -6.528586176476e-02 8.580924197222e-02 0.000000000000e+00
  -7.552523596287e-02 8.575668281567e-02 0.000000000000e+00
  -8.515637942382e-02 8.596947686029e-02 0.000000000000e+00
  -9.403269881102e-02 8.641609285498e-02 0.000000000000e+00
  -1.020232631503e-01 8.714331344478e-02 0.000000000000e+00
  -1.090191800421e-01 8.822868840155e-02 0.000000000000e+00
  -1.149451855840e-01 8.975547245092e-02 0.000000000000e+00
  -1.197657847432e-01 9.180667737645e-02 0.000000000000e+00
  -1.234857726493e-01 9.446523444079e-02 0.000000000000e+00
  -1.261485379263e-01 9.781551481311e-02 0.000000000000e+00
  -1.278340457032e-01 1.019477967530e-01 0.000000000000e+00
  -1.286569026869e-01 1.069675064082e-01 0.000000000000e+00
  -1.287649436467e-01 1.130099713510e-01 0.000000000000e+00
  -1.283387219841e-01 1.202613213677e-01 0.000000000000e+00
  -1.275902047732e-01 1.289847095182e-01 0.000000000000e+00
  -1.267536082195e-01 1.395449159007e-01 0.000000000000e+00
  -1.260532742727e-01 1.524123871792e-01 0.000000000000e+00
  -1.256289076777e-01 1.681125734931e-01 0.000000000000e+00
  -1.254101102578e-01 1.870770544928e-01 0.000000000000e+00
  -1.249698327444e-01 2.093650155705e-01 0.000000000000e+00
  -1.234393324215e-01 2.342726761058e-01 0.000000000000e+00
  -1.195963580658e-01 2.599342922610e-01 0.000000000000e+00
  -1.121973000580e-01 2.831096171079e-01 0.000000000000e+00
  -1.005030271562e-01 2.993864313273e-01 0.000000000000e+00
  -8.480240591771e-02 3.039408891382e-01 0.000000000000e+00
  -6.666522573335e-02 2.927839437069e-01 0.000000000000e+00
  -4.872964734149e-02 2.641569973757e-01 0.000000000000e+00
  -3.403153222057e-02 2.195650387406e-01 0.000000000000e+00
  -2.510694588181e-02 1.639732882204e-01 0.000000000000e+00
  -2.321538298050e-02 1.049613782360e-01 0.000000000000e+00
  -2.797509626869e-02 5.101527075522e-02 0.000000000000e+00
  -3.751319332469e-02 9.460678713059e-03 0.000000000000e+00
  -4.902320895701e-02 -1.534077730596e-02 0.000000000000e+00
  -5.949839501944e-02 -2.302910504701e-02 0.000000000000e+00
  -6.641001246791e-02 -1.728150253977e-02 0.000000000000e+00
  -6.818961251701e-02 -4.897574360820e-03 0.000000000000e+00
  -6.447745845581e-02 5.804109666266e-03 0.000000000000e+00
  -5.615617712158e-02 6.907977708492e-03 0.000000000000e+00
  -4.518896121449e-02 -7.262699450353e-03 0.000000000000e+00
  -3.426109590814e-02 -3.879003926035e-02 0.000000000000e+00
  -2.623221461168e-02 -8.561769388683e-02 0.000000000000e+00
  -2.346852098789e-02 -1.420043699275e-01 0.000000000000e+00
  -2.721449000287e-02 -1.999160418589e-01 0.000000000000e+00
  -3.721889191113e-02 -2.510069220189e-01 0.000000000000e+00
  -5.178916137190e-02 -2.886163023017e-01 0.000000000000e+00
  -6.830033126955e-02 -3.091768906740e-01 0.000000000000e+00
  -8.399097482730e-02 -3.126381497930e-01 0.000000000000e+00
  -9.674406509205e-02 -3.018793316423e-01 0.000000000000e+00
  -1.055590114437e-01 -2.814506639060e-01 0.000000000000e+00
  -1.105743977137e-01 -2.561685761887e-01 0.000000000000e+00
  -1.127122855878e-01 -2.300343536006e-01 0.000000000000e+00
  -1.131647716865e-01 -2.057113285553e-01 0.000000000000e+00
  -1.129591420582e-01 -1.845290390238e-01 0.000000000000e+00
  -1.127365522624e-01 -1.668120657040e-01 0.000000000000e+00
  -1.127432986987e-01 -1.523008894989e-01 0.000000000000e+00
  -1.129455763837e-01 -1.405029926561e-01 0.000000000000e+00
  -1.131676876683e-01 -1.309119468365e-01 0.000000000000e+00
  -1.131943518820e-01 -1.231057711076e-01 0.000000000000e+00
  -1.128252123193e-01 -1.167667611336e-01 0.000000000000e+00
  -1.118958514432e-01 -1.116641817642e-01 0.000000000000e+00
  -1.102831969051e-01 -1.076270751245e-01 0.000000000000e+00
  -1.079063450623e-01 -1.045200277711e-01 0.000000000000e+00
  -1.047268583348e-01 -1.022253933408e-01 0.000000000000e+00
  -1.007488526866e-01 -1.006315740402e-01 0.000000000000e+00
  -9.601817840617e-02 -9.962651708145e-02 0.000000000000e+00
  -9.062041484237e-02 -9.909553532839e-02 0.000000000000e+00
  -8.467744505434e-02 -9.892145220509e-02 0.000000000000e+00
  -7.834076021266e-02 -9.898597173792e-02 0.000000000000e+00
  -7.177859857896e-02 -9.917809790099e-02 0.000000000000e+00
  -6.515889217060e-02 -9.942175870961e-02 0.000000000000e+00
  -5.864131769652e-02 -9.971994645224e-02 0.000000000000e+00
  -5.239769806296e-02 -1.001656896776e-01 0.000000000000e+00
  -4.666355938244e-02 -1.008252640923e-01 0.000000000000e+00
  -4.178472422537e-02 -1.014316942124e-01 0.000000000000e+00
  -3.819195128451e-02 -1.009809831519e-01 0.000000000000e+00
  -3.625596043066e-02 -9.752632644540e-02 0.000000000000e+00
  -3.605507803295e-02 -8.853297631679e-02 0.000000000000e+00
  -3.718118457559e-02 -7.193445386061e-02 0.000000000000e+00
  -3.873873940756e-02 -4.756684779528e-02 0.000000000000e+00
  -3.961155811219e-02 -1.823342056863e-02 0.000000000000e+00
  -3.891684952886e-02 1.039278198364e-02 0.000000000000e+00
  -3.643276100751e-02 3.134879418756e-02 0.000000000000e+00
  -3.276632805375e-02 3.898285631840e-02 0.000000000000e+00
  -2.914502294290e-02 3.146719280543e-02 0.000000000000e+00
  -2.690465012652e-02 1.199957507123e-02 0.000000000000e+00
  0.000000000000e+00 0.000000000000e+00 0.000000000000e+00
  0.000000000000e+00 0.000000000000e+00 0.000000000000e+00
  2.315288057096e-02 -6.684365785610e-03 0.000000000000e+00
  1.993866025030e-02 -1.673228557005e-02 0.000000000000e+00
  1.453128998614e-02 -1.806984937633e-02 0.000000000000e+00
  8.508713696219e-03 -8.508713696219e-03 0.000000000000e+00
  3.304845465108e-03 1.037599018536e-02 0.000000000000e+00
  -3.894191737449e-04 3.421819122657e-02 0.000000000000e+00
  -2.847556259588e-03 5.779493940020e-02 0.000000000000e+00
  -5.078363889440e-03 7.696758327585e-02 0.000000000000e+00
  -8.304489332428e-03 8.980750942186e-02 0.000000000000e+00
  -1.343576581460e-02 9.660496412082e-02 0.000000000000e+00
  -2.078494463716e-02 9.903967364721e-02 0.000000000000e+00
  -3.010354405609e-02 9.911008707150e-02 0.000000000000e+00
  -4.083283445615e-02 9.835596920963e-02 0.000000000000e+00
  -5.238165964122e-02 9.759344896296e-02 0.000000000000e+00
  -6.428901161300e-02 9.705806157103e-02 0.000000000000e+00
  -7.624359918379e-02 9.670182498576e-02 0.000000000000e+00
  -8.802279375209e-02 9.643467271945e-02 0.000000000000e+00
  -9.942985032345e-02 9.623427295438e-02 0.000000000000e+00
  -1.102689702820e-01 9.615481764321e-02 0.000000000000e+00
  -1.203529279798e-01 9.629705879270e-02 0.000000000000e+00