# vtk DataFile Version 3.0
Karman Output
ASCII
DATASET RECTILINEAR_GRID
DIMENSIONS 101 101 1
X_COORDINATES 101 float
   0.000000000000e+00   9.900990099010e-03   1.980198019802e-02   2.970297029703e-02   3.960396039604e-02   4.950495049505e-02   5.940594059406e-02   6.930693069307e-02   7.920792079208e-02   8.910891089109e-02   9.900990099010e-02   1.089108910891e-01   1.188118811881e-01   1.287128712871e-01   1.386138613861e-01   1.485148514851e-01   1.584158415842e-01   1.683168316832e-01   1.782178217822e-01   1.881188118812e-01   1.980198019802e-01   2.079207920792e-01   2.178217821782e-01   2.277227722772e-01   2.376237623762e-01   2.475247524752e-01   2.574257425743e-01   2.673267326733e-01   2.772277227723e-01   2.871287128713e-01   2.970297029703e-01   3.069306930693e-01   3.168316831683e-01   3.267326732673e-01   3.366336633663e-01   3.465346534653e-01   3.564356435644e-01   3.663366336634e-01   3.762376237624e-01   3.861386138614e-01   3.960396039604e-01   4.059405940594e-01   4.158415841584e-01   4.257425742574e-01   4.356435643564e-01   4.455445544554e-01   4.554455445545e-01   4.653465346535e-01   4.752475247525e-01   4.851485148515e-01   4.950495049505e-01   5.049504950495e-01   5.148514851485e-01   5.247524752475e-01   5.346534653465e-01   5.445544554455e-01   5.544554455446e-01   5.643564356436e-01   5.742574257426e-01   5.841584158416e-01   5.940594059406e-01   6.039603960396e-01   6.138613861386e-01   6.237623762376e-01   6.336633663366e-01   6.435643564356e-01   6.534653465347e-01   6.633663366337e-01   6.732673267327e-01   6.831683168317e-01   6.930693069307e-01   7.029702970297e-01   7.128712871287e-01   7.227722772277e-01   7.326732673267e-01   7.425742574257e-01   7.524752475248e-01   7.623762376238e-01   7.722772277228e-01   7.821782178218e-01   7.920792079208e-01   8.019801980198e-01   8.118811881188e-01   8.217821782178e-01   8.316831683168e-01   8.415841584158e-01   8.514851485149e-01   8.613861386139e-01   8.712871287129e-01   8.811881188119e-01   8.910891089109e-01   9.009900990099e-01   9.108910891089e-01   9.207920792079e-01   9.306930693069e-01   9.405940594059e-01   9.504950495050e-01   9.603960396040e-01   9.702970297030e-01   9.801980198020e-01   9.900990099010e-01
Y_COORDINATES 101 float
   0.000000000000e+00   9.900990099010e-03   1.980198019802e-02   2.970297029703e-02   3.960396039604e-02   4.950495049505e-02   5.940594059406e-02   6.930693069307e-02   7.920792079208e-02   8.910891089109e-02   9.900990099010e-02   1.089108910891e-01   1.188118811881e-01   1.287128712871e-01   1.386138613861e-01   1.485148514851e-01   1.584158415842e-01   1.683168316832e-01   1.782178217822e-01   1.881188118812e-01   1.980198019802e-01   2.079207920792e-01   2.178217821782e-01   2.277227722772e-01   2.376237623762e-01   2.475247524752e-01   2.574257425743e-01   2.673267326733e-01   2.772277227723e-01   2.871287128713e-01   2.970297029703e-01   3.069306930693e-01   3.168316831683e-01   3.267326732673e-01   3.366336633663e-01   3.465346534653e-01   3.564356435644e-01   3.663366336634e-01   3.762376237624e-01   3.861386138614e-01   3.960396039604e-01   4.059405940594e-01   4.158415841584e-01   4.257425742574e-01   4.356435643564e-01   4.455445544554e-01   4.554455445545e-01   4.653465346535e-01   4.752475247525e-01   4.851485148515e-01   4.950495049505e-01   5.049504950495e-01   5.148514851485e-01   5.247524752475e-01   5.346534653465e-01   5.445544554455e-01   5.544554455446e-01   5.643564356436e-01   5.742574257426e-01   5.841584158416e-01   5.940594059406e-01   6.039603960396e-01   6.138613861386e-01   6.237623762376e-01   6.336633663366e-01   6.435643564356e-01   6.534653465347e-01   6.633663366337e-01   6.732673267327e-01   6.831683168317e-01   6.930693069307e-01   7.029702970297e-01   7.128712871287e-01   7.227722772277e-01   7.326732673267e-01   7.425742574257e-01   7.524752475248e-01   7.623762376238e-01   7.722772277228e-01   7.821782178218e-01   7.920792079208e-01   8.019801980198e-01   8.118811881188e-01   8.217821782178e-01   8.316831683168e-01   8.415841584158e-01   8.514851485149e-01   8.613861386139e-01   8.712871287129e-01   8.811881188119e-01   8.910891089109e-01   9.009900990099e-01   9.108910891089e-01   9.207920792079e-01   9.306930693069e-01   9.405940594059e-01   9.504950495050e-01   9.603960396040e-01   9.702970297030e-01   9.801980198020e-01   9.900990099010e-01
Z_COORDINATES 1 float
  0.000000000000e+00
POINT_DATA 10201
VECTORS E_field float
  0.000000000000e+00 0.000000000000e+00 0.000000000000e+00
  0.000000000000e+00 0.000000000000e+00 0.000000000000e+00
  0.000000000000e+00 0.000000000000e+00 0.000000000000e+00
  0.000000000000e+00 0.000000000000e+00 0.000000000000e+00
  0.000000000000e+00 0.000000000000e+00 0.000000000000e+00
  0.000000000000e+00 0.000000000000e+00 0.000000000000e+00
  0.000000000000e+00 0.000000000000e+00 0.000000000000e+00
  0.000000000000e+00 0.000000000000e+00 0.000000000000e+00
  0.000000000000e+00 0.000000000000e+00 0.000000000000e+00
  0.000000000000e+00 0.000000000000e+00 0.000000000000e+00
  0.000000000000e+00 0.000000000000e+00 0.000000000000e+00
  0.000000000000e+00 0.000000000000e+00 0.000000000000e+00
  0.000000000000e+00 0.000000000000e+00 0.000000000000e+00
  0.000000000000e+00 0.000000000000e+00 0.000000000000e+00
  0.000000000000e+00 0.000000000000e+00 0.000000000000e+00
  0.000000000000e+00 0.000000000000e+00 0.000000000000e+00
  0.000000000000e+00 0.000000000000e+00 0.000000000000e+00
  0.000000000000e+00 0.000000000000e+00 0.000000000000e+00
  0.000000000000e+00 0.000000000000e+00 0.000000000000e+00
  0.000000000000e+00 0.000000000000e+00 0.000000000000e+00
  0.000000000000e+00 0.000000000000e+00 0.000000000000e+00
  0.000000000000e+00 0.000000000000e+00 0.000000000000e+00
  0.000000000000e+00 0.000000000000e+00 0.000000000000e+00
  0.000000000000e+00 0.000000000000e+00 0.000000000000e+00
  0.000000000000e+00 0.000000000000e+00 0.000000000000e+00
  0.000000000000e+00 0.000000000000e+00 0.000000000000e+00
  0.000000000000e+00 0.000000000000e+00 0.000000000000e+00
  0.000000000000e+00 0.000000000000e+00 0.000000000000e+00
  0.000000000000e+00 0.000000000000e+00 0.000000000000e+00
  0.000000000000e+00 0.000000000000e+00 0.000000000000e+00
  0.000000000000e+00 0.000000000000e+00 0.000000000000e+00
  0.000000000000e+00 0.000000000000e+00 0.000000000000e+00
  0.000000000000e+00 0.000000000000e+00 0.000000000000e+00
  0.000000000000e+00 0.000000000000e+00 0.000000000000e+00
  0.000000000000e+00 0.000000000000e+00 0.000000000000e+00
  0.000000000000e+00 0.000000000000e+00 0.000000000000e+00
  0.000000000000e+00 0.000000000000e+00 0.000000000000e+00
  0.000000000000e+00 0.000000000000e+00 0.000000000000e+00
  0.000000000000e+00 0.000000000000e+00 0.000000000000e+00
  0.000000000000e+00 0.000000000000e+00 0.000000000000e+00
  0.000000000000e+00 0.000000000000e+00 0.000000000000e+00
  0.000000000000e+00 0.000000000000e+00 0.000000000000e+00
  0.000000000000e+00 0.000000000000e+00 0.000000000000e+00
  0.000000000000e+00 0.000000000000e+00 0.000000000000e+00
  0.000000000000e+00 0.000000000000e+00 0.000000000000e+00
  0.000000000000e+00 0.000000000000e+00 0.000000000000e+00
  0.000000000000e+00 0.000000000000e+00 0.000000000000e+00
  0.000000000000e+00 0.000000000000e+00 0.000000000000e+00
  0.000000000000e+00 0.000000000000e+00 0.000000000000e+00
  0.000000000000e+00 0.000000000000e+00 0.000000000000e+00
  0.000000000000e+00 0.000000000000e+00 0.000000000000e+00
  0.000000000000e+00 0.000000000000e+00 0.000000000000e+00
  0.000000000000e+00 0.000000000000e+00 0.000000000000e+00
  0.000000000000e+00 0.000000000000e+00 0.000000000000e+00
  0.000000000000e+00 0.000000000000e+00 0.000000000000e+00
  0.000000000000e+00 0.000000000000e+00 0.000000000000e+00
  0.000000000000e+00 0.000000000000e+00 0.000000000000e+00
  0.000000000000e+00 0.000000000000e+00 0.000000000000e+00
  0.000000000000e+00 0.000000000000e+00 0.000000000000e+00
  0.000000000000e+00 0.000000000000e+00 0.000000000000e+00
  0.000000000000e+00 0.000000000000e+00 0.000000000000e+00
  0.000000000000e+00 0.000000000000e+00 0.000000000000e+00
  0.000000000000e+00 0.000000000000e+00 0.000000000000e+00
  0.000000000000e+00 0.000000000000e+00 0.000000000000e+00
  0.000000000000e+00 0.000000000000e+00 0.000000000000e+00
  0.000000000000e+00 0.000000000000e+00 0.000000000000e+00
  0.000000000000e+00 0.000000000000e+00 0.000000000000e+00
  0.000000000000e+00 0.000000000000e+00 0.000000000000e+00
  0.000000000000e+00 0.000000000000e+00 0.000000000000e+00
  0.000000000000e+00 0.000000000000e+00 0.000000000000e+00
  0.000000000000e+00 0.000000000000e+00 0.000000000000e+00
  0.000000000000e+00 0.000000000000e+00 0.000000000000e+00
  0.000000000000e+00 0.000000000000e+00 0.000000000000e+00
  0.000000000000e+00 0.000000000000e+00 0.000000000000e+00
  0.000000000000e+00 0.000000000000e+00 0.000000000000e+00
  0.000000000000e+00 0.000000000000e+00 0.000000000000e+00
  0.000000000000e+00 0.000000000000e+00 0.000000000000e+00
  0.000000000000e+00 0.000000000000e+00 0.000000000000e+00
  0.000000000000e+00 0.000000000000e+00 0.000000000000e+00
  0.000000000000e+00 0.000000000000e+00 0.000000000000e+00
  0.000000000000e+00 0.000000000000e+00 0.000000000000e+00
  0.000000000000e+00 0.000000000000e+00 0.000000000000e+00
  0.000000000000e+00 0.000000000000e+00 0.000000000000e+00
  0.000000000000e+00 0.000000000000e+00 0.000000000000e+00
  0.000000000000e+00 0.000000000000e+00 0.000000000000e+00
  0.000000000000e+00 0.000000000000e+00 0.000000000000e+00
  0.000000000000e+00 0.000000000000e+00 0.000000000000e+00
  0.000000000000e+00 0.000000000000e+00 0.000000000000e+00
  0.000000000000e+00 0.000000000000e+00 0.000000000000e+00
  0.000000000000e+00 0.000000000000e+00 0.000000000000e+00
  0.000000000000e+00 0.000000000000e+00 0.000000000000e+00
  0.000000000000e+00 0.000000000000e+00 0.000000000000e+00
  0.000000000000e+00 0.000000000000e+00 0.000000000000e+00
  0.000000000000e+00 0.000000000000e+00 0.000000000000e+00
  0.000000000000e+00 0.000000000000e+00 0.000000000000e+00
  0.000000000000e+00 0.000000000000e+00 0.000000000000e+00
  0.000000000000e+00 0.000000000000e+00 0.000000000000e+00
  0.000000000000e+00 0.000000000000e+00 0.000000000000e+00
  0.000000000000e+00 0.000000000000e+00 0.000000000000e+00
  0.000000000000e+00 0.000000000000e+00 0.000000000000e+00
  0.000000000000e+00 0.000000000000e+00 0.000000000000e+00
  0.000000000000e+00 0.000000000000e+00 0.000000000000e+00
  -7.823170963347e-02 7.823170963347e-02 0.000000000000e+00
  -7.614294551170e-02 2.244557222171e-01 0.000000000000e+00
  -7.224653148677e-02 3.426802858267e-01 0.000000000000e+00
  -6.700679958426e-02 4.222240913240e-01 0.000000000000e+00
  -6.092450557546e-02 4.611745399603e-01 0.000000000000e+00
  -5.440927497703e-02 4.651475789314e-01 0.000000000000e+00
  -4.771959019609e-02 4.441474613647e-01 0.000000000000e+00
  -4.097646189555e-02 4.091061306360e-01 0.000000000000e+00
  -3.422099977997e-02 3.693477858503e-01 0.000000000000e+00
  -2.747579555553e-02 3.314186052362e-01 0.000000000000e+00
  -2.078403335180e-02 2.990247140778e-01 0.000000000000e+00
  -1.422209137014e-02 2.735576722561e-01 0.000000000000e+00
  -7.895057108972e-03 2.547924133332e-01 0.000000000000e+00
  -1.925668279533e-03 2.415554814368e-01 0.000000000000e+00
  3.558109106562e-03 2.322907812544e-01 0.000000000000e+00
  8.435672723065e-03 2.254823622617e-01 0.000000000000e+00
  1.260572712565e-02 2.199064508036e-01 0.000000000000e+00
  1.599582548140e-02 2.147216991702e-01 0.000000000000e+00
  1.856795884961e-02 2.094468991213e-01 0.000000000000e+00
  2.031995787639e-02 2.038868637983e-01 0.000000000000e+00
  2.128354901796e-02 1.980495800900e-01 0.000000000000e+00
  2.152009667217e-02 1.920738961350e-01 0.000000000000e+00
  2.111478433958e-02 1.861728234459e-01 0.000000000000e+00
  2.016979672159e-02 1.805924329371e-01 0.000000000000e+00
  1.879704787104e-02 1.755843645487e-01 0.000000000000e+00
  1.711099390018e-02 1.713889613706e-01 0.000000000000e+00
  1.522200307579e-02 1.682263282606e-01 0.000000000000e+00
  1.323066225682e-02 1.662936975511e-01 0.000000000000e+00
  1.122328013088e-02 1.657683436698e-01 0.000000000000e+00
  9.268692671986e-03 1.668158690076e-01 0.000000000000e+00
  7.416315572877e-03 1.696044243114e-01 0.000000000000e+00
  5.695232449369e-03 1.743261351750e-01 0.000000000000e+00
  4.113924436899e-03 1.812274487628e-01 0.000000000000e+00
  2.660268588944e-03 1.906511700357e-01 0.000000000000e+00
  1.302463774429e-03 2.030939384545e-01 0.000000000000e+00
  -5.739114447760e-06 2.192750264929e-01 0.000000000000e+00
  -1.309060121137e-03 2.401796570953e-01 0.000000000000e+00
  -2.618391282116e-03 2.669800689804e-01 0.000000000000e+00
  -3.865696511661e-03 3.006898750669e-01 0.000000000000e+00
  -4.865277426840e-03 3.414494398002e-01 0.000000000000e+00
  -5.312165812641e-03 3.875249413905e-01 0.000000000000e+00
  -4.842375094716e-03 4.343776189843e-01 0.000000000000e+00
  -3.152007130310e-03 4.743496301989e-01 0.000000000000e+00
  -1.359298886287e-04 4.974331518223e-01 0.000000000000e+00
  4.014207493010e-03 4.931987167019e-01 0.000000000000e+00
  8.801674119277e-03 4.534307508392e-01 0.000000000000e+00
  1.351632870667e-02 3.746426712072e-01 0.000000000000e+00
  1.739355849981e-02 2.596282927396e-01 0.000000000000e+00
  1.978541246053e-02 1.175390159046e-01 0.000000000000e+00
  2.029526052000e-02 -3.754080941240e-02 0.000000000000e+00
  1.885068975368e-02 -1.891390465138e-01 0.000000000000e+00
  1.571057572455e-02 -3.214531197329e-01 0.000000000000e+00
  1.141141109414e-02 -4.222439373356e-01 0.000000000000e+00
  6.660244873276e-03 -4.849279487985e-01 0.000000000000e+00
  2.188623813282e-03 -5.093714369170e-01 0.000000000000e+00
  -1.402457505441e-03 -5.011825532448e-01 0.000000000000e+00
  -3.762484516127e-03 -4.697240687335e-01 0.000000000000e+00
  -4.835309561381e-03 -4.254931387776e-01 0.000000000000e+00
  -4.812730321938e-03 -3.777181482224e-01 0.000000000000e+00
  -4.021746780830e-03 -3.328694825228e-01 0.000000000000e+00
  -2.796547854541e-03 -2.943361195619e-01 0.000000000000e+00
  -1.385643705940e-03 -2.630275885406e-01 0.000000000000e+00
  8.133614080123e-05 -2.383794244218e-01 0.000000000000e+00
  1.575145334863e-03 -2.192691605556e-01 0.000000000000e+00
  3.123979537566e-03 -2.045880002407e-01 0.000000000000e+00
  4.772485482576e-03 -1.934671877467e-01 0.000000000000e+00
  6.555691876495e-03 -1.852916526889e-01 0.000000000000e+00
  8.487515248271e-03 -1.796351555222e-01 0.000000000000e+00
  1.055765759624e-02 -1.761910526596e-01 0.000000000000e+00
  1.273163174227e-02 -1.747197781359e-01 0.000000000000e+00
  1.495176402457e-02 -1.750116863876e-01 0.000000000000e+00
  1.713905729458e-02 -1.768612391997e-01 0.000000000000e+00
  1.919628056581e-02 -1.800503213402e-01 0.000000000000e+00
  2.101245665024e-02 -1.843391240511e-01 0.000000000000e+00
  2.246868020094e-02 -1.894632805728e-01 0.000000000000e+00
  2.344501699821e-02 -1.951365328726e-01 0.000000000000e+00
  2.382807239132e-02 -2.010587416201e-01 0.000000000000e+00
  2.351870306965e-02 -2.069294704479e-01 0.000000000000e+00
  2.243930655812e-02 -2.124682055040e-01 0.000000000000e+00
  2.054013265421e-02 -2.174433846518e-01 0.000000000000e+00
  1.780411946741e-02 -2.217128609922e-01 0.000000000000e+00
  1.424987770507e-02 -2.252779985933e-01 0.000000000000e+00
  9.932522958174e-03 -2.283526502108e-01 0.000000000000e+00
  4.941903190871e-03 -2.314440084752e-01 0.000000000000e+00
  -6.024915352161e-04 -2.354284099867e-01 0.000000000000e+00
  -6.560438899799e-03 -2.415817349977e-01 0.000000000000e+00
  -1.278320514809e-02 -2.515072834130e-01 0.000000000000e+00
  -1.912755302788e-02 -2.669136459897e-01 0.000000000000e+00
  -2.547024453823e-02 -2.892255508659e-01 0.000000000000e+00
  -3.172273310495e-02 -3.190303274517e-01 0.000000000000e+00
  -3.784452094253e-02 -3.553648920096e-01 0.000000000000e+00
  -4.384815108225e-02 -3.948966039648e-01 0.000000000000e+00
  -4.978264638992e-02 -4.312279302167e-01 0.000000000000e+00
  -5.568445191604e-02 -4.548203264659e-01 0.000000000000e+00
  -6.150179480470e-02 -4.541530934978e-01 0.000000000000e+00
  -6.702362501214e-02 -4.184207290793e-01 0.000000000000e+00
  -7.185934508234e-02 -3.412832779875e-01 0.000000000000e+00
  -7.550264884727e-02 -2.242980209852e-01 0.000000000000e+00
  -7.747179288731e-02 -7.831007951108e-02 0.000000000000e+00
  0.000000000000e+00 0.000000000000e+00 0.000000000000e+00
  0.000000000000e+00 0.000000000000e+00 0.000000000000e+00
  -2.244557222171e-01 7.614294551170e-02 0.000000000000e+00
  -2.184938369480e-01 2.184938369480e-01 0.000000000000e+00
  -2.073955132517e-01 3.336474333745e-01 0.000000000000e+00
  -1.925225075250e-01 4.111442061470e-01 0.000000000000e+00
  -1.753388948958e-01 4.489885184994e-01 0.000000000000e+00
  -1.570331784048e-01 4.525126533028e-01 0.000000000000e+00
  -1.383395787085e-01 4.313991025161e-01 0.000000000000e+00
  -1.195777349663e-01 3.963495174419e-01 0.000000000000e+00
  -1.008238737362e-01 3.565950756987e-01 0.000000000000e+00
  -8.209521191033e-02 3.186974493375e-01 0.000000000000e+00
  -6.346968179784e-02 2.864285776602e-01 0.000000000000e+00
  -4.512716966578e-02 2.612493545600e-01 0.000000000000e+00
  -2.733921690093e-02 2.429857440034e-01 0.000000000000e+00
  -1.043814342079e-02 2.304916884571e-01 0.000000000000e+00
  5.218607634412e-03 2.222140457928e-01 0.000000000000e+00
  1.928503416195e-02 2.166151075793e-01 0.000000000000e+00
  3.146161989346e-02 2.124270653520e-01 0.000000000000e+00
  4.152387419120e-02 2.087487319684e-01 0.000000000000e+00
  4.933990565072e-02 2.050317014954e-01 0.000000000000e+00
  5.487626959976e-02 2.010136984484e-01 0.000000000000e+00
  5.819439616541e-02 1.966410277327e-01 0.000000000000e+00
  5.944044610085e-02 1.919998509026e-01 0.000000000000e+00
  5.883062521486e-02 1.872620018969e-01 0.000000000000e+00
  5.663341425969e-02 1.826454530593e-01 0.000000000000e+00
  5.315012118859e-02 1.783873863481e-01 0.000000000000e+00
  4.869517750234e-02 1.747269372283e-01 0.000000000000e+00
  4.357746773108e-02 1.718950529986e-01 0.000000000000e+00
  3.808377295135e-02 1.701100084118e-01 0.000000000000e+00
  3.246512901893e-02 1.695780588675e-01 0.000000000000e+00
  2.692650511939e-02 1.704993651684e-01 0.000000000000e+00
  2.161977266799e-02 1.730800377012e-01 0.000000000000e+00
  1.663950522413e-02 1.775518723528e-01 0.000000000000e+00
  1.202071444622e-02 1.842018103758e-01 0.000000000000e+00
  7.737906811773e-03 1.934132719060e-01 0.000000000000e+00
  3.707994714805e-03 2.057195534973e-01 0.000000000000e+00
  -1.928307550002e-04 2.218584398117e-01 0.000000000000e+00
  -4.080254073158e-03 2.427869881064e-01 0.000000000000e+00
  -7.966669224812e-03 2.695684842903e-01 0.000000000000e+00
  -1.163191287717e-02 3.030140086520e-01 0.000000000000e+00
  -1.451600775549e-02 3.430089820280e-01 0.000000000000e+00
  -1.572119847890e-02 3.876174782995e-01 0.000000000000e+00
  -1.419154022254e-02 4.322856331383e-01 0.000000000000e+00
  -9.058693228865e-03 4.696184011347e-01 0.000000000000e+00
  -4.011617690165e-05 4.901297266512e-01 0.000000000000e+00
  1.228234260171e-02 4.840295457798e-01 0.000000000000e+00
  2.644263813786e-02 4.436521596713e-01 0.000000000000e+00
  4.035805169802e-02 3.657911943006e-01 0.000000000000e+00
  5.179035344367e-02 2.531702381750e-01 0.000000000000e+00
  5.884290681790e-02 1.145526631900e-01 0.000000000000e+00
  6.035347373633e-02 -3.657487163742e-02 0.000000000000e+00
  5.610842925890e-02 -1.844153690284e-01 0.000000000000e+00
  4.686478984659e-02 -3.137930437837e-01 0.000000000000e+00
  3.419376501624e-02 -4.129338238536e-01 0.000000000000e+00
  2.016771959005e-02 -4.754608506825e-01 0.000000000000e+00
  6.933748800542e-03 -5.011329432468e-01 0.000000000000e+00
  -3.738181562750e-03 -4.951580353044e-01 0.000000000000e+00
  -1.080499445018e-02 -4.663217468491e-01 0.000000000000e+00
  -1.408058620696e-02 -4.245470439297e-01 0.000000000000e+00
  -1.410518130223e-02 -3.786622272767e-01 0.000000000000e+00
  -1.182221158188e-02 -3.349993567823e-01 0.000000000000e+00
  -8.208546623661e-03 -2.970451092286e-01 0.000000000000e+00
  -4.002934774465e-03 -2.659351149033e-01 0.000000000000e+00
  3.954248055512e-04 -2.413372375086e-01 0.000000000000e+00
  4.878727970555e-03 -2.222884598434e-01 0.000000000000e+00
  9.509364111985e-03 -2.077481713071e-01 0.000000000000e+00
  1.440138302130e-02 -1.968475415409e-01 0.000000000000e+00
  1.964330678681e-02 -1.889364290578e-01 0.000000000000e+00
  2.526309368466e-02 -1.835419894249e-01 0.000000000000e+00
  3.121857227913e-02 -1.803098397004e-01 0.000000000000e+00
  3.739826287907e-02 -1.789546558416e-01 0.000000000000e+00
  4.362582874823e-02 -1.792245068336e-01 0.000000000000e+00
  4.966719067975e-02 -1.808770739554e-01 0.000000000000e+00
  5.524094704874e-02 -1.836654662248e-01 0.000000000000e+00
  6.003237087452e-02 -1.873315790767e-01 0.000000000000e+00
  6.371065574696e-02 -1.916053339703e-01 0.000000000000e+00
  6.594861208067e-02 -1.962087726061e-01 0.000000000000e+00
  6.644361506585e-02 -2.008645602649e-01 0.000000000000e+00
  6.493835909084e-02 -2.053090265064e-01 0.000000000000e+00
  6.123993155435e-02 -2.093108253975e-01 0.000000000000e+00
  5.523580318599e-02 -2.126974624860e-01 0.000000000000e+00
  4.690553203146e-02 -2.153924988166e-01 0.000000000000e+00
  3.632731914622e-02 -2.174659061213e-01 0.000000000000e+00
  2.367872126118e-02 -2.191987900509e-01 0.000000000000e+00
  9.230314678171e-03 -2.211588422848e-01 0.000000000000e+00
  -6.669700372267e-03 -2.242691664005e-01 0.000000000000e+00
  -2.362140024658e-02 -2.298313313450e-01 0.000000000000e+00
  -4.120815468472e-02 -2.394481663793e-01 0.000000000000e+00
  -5.903656103299e-02 -2.548000087953e-01 0.000000000000e+00
  -7.677779425733e-02 -2.772552633256e-01 0.000000000000e+00
  -9.420948226945e-02 -3.073164384131e-01 0.000000000000e+00
  -1.112532062819e-01 -3.439132691981e-01 0.000000000000e+00
  -1.279864280564e-01 -3.836113748622e-01 0.000000000000e+00
  -1.445900541916e-01 -4.199750378765e-01 0.000000000000e+00
  -1.612003216420e-01 -4.435611458296e-01 0.000000000000e+00
  -1.776838008665e-01 -4.431114520210e-01 0.000000000000e+00
  -1.934282392499e-01 -4.081961019652e-01 0.000000000000e+00
  -2.072851759738e-01 -3.328152483075e-01 0.000000000000e+00
  -2.177613253211e-01 -2.186465975529e-01 0.000000000000e+00
  -2.234347890746e-01 -7.631889514991e-02 0.000000000000e+00
  0.000000000000e+00 0.000000000000e+00 0.000000000000e+00
  0.000000000000e+00 0.000000000000e+00 0.000000000000e+00
  -3.426802858267e-01 7.224653148677e-02 0.000000000000e+00
  -3.336474333745e-01 2.073955132517e-01 0.000000000000e+00
  -3.169030936660e-01 3.169030936660e-01 0.000000000000e+00
  -2.946228837981e-01 3.907353302609e-01 0.000000000000e+00
  -2.691340321645e-01 4.267249301228e-01 0.000000000000e+00
  -2.423007725684e-01 4.296372655923e-01 0.000000000000e+00
  -2.152302060797e-01 4.085103240415e-01 0.000000000000e+00
  -1.883332468036e-01 3.735794928982e-01 0.000000000000e+00
  -1.616036563797e-01 3.338816485883e-01 0.000000000000e+00
  -1.349248716449e-01 2.960034298872e-01 0.000000000000e+00
  -1.082760787299e-01 2.638482740830e-01 0.000000000000e+00
  -8.181107821956e-02 2.390221454947e-01 0.000000000000e+00
  -5.585061561524e-02 2.214645376995e-01 0.000000000000e+00
  -3.083789009876e-02 2.100990957644e-01 0.000000000000e+00
  -7.284106105753e-03 2.033961034373e-01 0.000000000000e+00
  1.428849936424e-02 1.997940179373e-01 0.000000000000e+00
  3.340215254488e-02 1.979579160819e-01 0.000000000000e+00
  4.967013322718e-02 1.968876462584e-01 0.000000000000e+00
  6.282770580935e-02 1.959191831636e-01 0.000000000000e+00
  7.274605282487e-02 1.946715058156e-01 0.000000000000e+00
  7.943246320313e-02 1.929786834216e-01 0.000000000000e+00
  8.302083611997e-02 1.908277723614e-01 0.000000000000e+00
  8.375524920541e-02 1.883094882386e-01 0.000000000000e+00
  8.196836308600e-02 1.855820637921e-01 0.000000000000e+00
  7.805632126827e-02 1.828461105041e-01 0.000000000000e+00
  7.245190057338e-02 1.803275774535e-01 0.000000000000e+00
  6.559761351671e-02 1.782664096013e-01 0.000000000000e+00
  5.792032109004e-02 1.769096390155e-01 0.000000000000e+00
  4.980866682245e-02 1.765087264639e-01 0.000000000000e+00
  4.159420094961e-02 1.773217873446e-01 0.000000000000e+00
  3.353650294783e-02 1.796220459788e-01 0.000000000000e+00
  2.581206123244e-02 1.837145732358e-01 0.000000000000e+00
  1.850634186793e-02 1.899636196381e-01 0.000000000000e+00
  1.160959761934e-02 1.988310145324e-01 0.000000000000e+00
  5.022287837978e-03 2.109190327599e-01 0.000000000000e+00
  -1.413320298469e-03 2.269953941744e-01 0.000000000000e+00
  -7.829631112253e-03 2.479537679081e-01 0.000000000000e+00
  -1.418171061702e-02 2.746401991978e-01 0.000000000000e+00
  -2.005189628295e-02 3.074777231445e-01 0.000000000000e+00
  -2.449959605193e-02 3.458770623036e-01 0.000000000000e+00
  -2.608572187443e-02 3.875407147399e-01 0.000000000000e+00
  -2.316706303969e-02 4.279140798348e-01 0.000000000000e+00
  -1.443494871871e-02 4.601249934142e-01 0.000000000000e+00
  4.781171222677e-04 4.756914918302e-01 0.000000000000e+00
  2.058283927556e-02 4.660406000708e-01 0.000000000000e+00
  4.351552649057e-02 4.245481230618e-01 0.000000000000e+00
  6.595943239682e-02 3.485359118783e-01 0.000000000000e+00
  8.436318103085e-02 2.405894706192e-01 0.000000000000e+00
  9.571733030536e-02 1.087267284287e-01 0.000000000000e+00
  9.817351419444e-02 -3.471568745528e-02 0.000000000000e+00
  9.138724233029e-02 -1.752432367681e-01 0.000000000000e+00
  7.655718807292e-02 -2.988914824121e-01 0.000000000000e+00
  5.617895884555e-02 -3.947861313398e-01 0.000000000000e+00
  3.354931589526e-02 -4.569528551080e-01 0.000000000000e+00
  1.209297806958e-02 -4.849506305804e-01 0.000000000000e+00
  -5.347923080439e-03 -4.832275168818e-01 0.000000000000e+00
  -1.706442579172e-02 -4.594689501108e-01 0.000000000000e+00
  -2.269195842938e-02 -4.224967166928e-01 0.000000000000e+00
  -2.301955636562e-02 -3.803603618586e-01 0.000000000000e+00
  -1.949933500308e-02 -3.391044136025e-01 0.000000000000e+00
  -1.367610243235e-02 -3.023769501937e-01 0.000000000000e+00
  -6.758041261138e-03 -2.717269471541e-01 0.000000000000e+00
  5.573586631539e-04 -2.472591649040e-01 0.000000000000e+00
  8.026178771980e-03 -2.283186558200e-01 0.000000000000e+00
  1.568082658726e-02 -2.140032593520e-01 0.000000000000e+00
  2.364756246280e-02 -2.034512083215e-01 0.000000000000e+00
  3.202201176191e-02 -1.959491353661e-01 0.000000000000e+00
  4.080950015035e-02 -1.909365584168e-01 0.000000000000e+00
  4.990825251810e-02 -1.879695016783e-01 0.000000000000e+00
  5.911270424240e-02 -1.866791361919e-01 0.000000000000e+00
  6.812486707837e-02 -1.867397551904e-01 0.000000000000e+00
  7.657029467622e-02 -1.878486151290e-01 0.000000000000e+00
  8.401831620856e-02 -1.897157029531e-01 0.000000000000e+00
  9.000627108621e-02 -1.920607210521e-01 0.000000000000e+00
  9.406688287091e-02 -1.946150886521e-01 0.000000000000e+00
  9.575738041806e-02 -1.971274718052e-01 0.000000000000e+00
  9.468857591602e-02 -1.993720595490e-01 0.000000000000e+00
  9.055196480354e-02 -2.011596601348e-01 0.000000000000e+00
  8.314304609097e-02 -2.023528455200e-01 0.000000000000e+00
  7.237933093156e-02 -2.028875988357e-01 0.000000000000e+00
  5.831187743684e-02 -2.028046378176e-01 0.000000000000e+00
  4.112965711180e-02 -2.022933339100e-01 0.000000000000e+00
  2.115613084544e-02 -2.017492381108e-01 0.000000000000e+00
  -1.163601537699e-03 -2.018402552587e-01 0.000000000000e+00
  -2.528811572034e-02 -2.035632241936e-01 0.000000000000e+00
  -5.061973240238e-02 -2.082539569956e-01 0.000000000000e+00
  -7.655750875351e-02 -2.175010099394e-01 0.000000000000e+00
  -1.025573349934e-01 -2.329189326471e-01 0.000000000000e+00
  -1.281944218749e-01 -2.557580193679e-01 0.000000000000e+00
  -1.532266559656e-01 -2.863497602681e-01 0.000000000000e+00
  -1.776495092553e-01 -3.234133700409e-01 0.000000000000e+00
  -2.017068148374e-01 -3.633207466628e-01 0.000000000000e+00
  -2.257952896867e-01 -3.995735650913e-01 0.000000000000e+00
  -2.502155071949e-01 -4.229321336562e-01 0.000000000000e+00
  -2.748039589383e-01 -4.226685332266e-01 0.000000000000e+00
  -2.985980970144e-01 -3.891004443000e-01 0.000000000000e+00
  -3.197520516283e-01 -3.169000146350e-01 0.000000000000e+00
  -3.358550701964e-01 -2.079826633100e-01 0.000000000000e+00
  -3.446099436095e-01 -7.255449222622e-02 0.000000000000e+00
  0.000000000000e+00 0.000000000000e+00 0.000000000000e+00
  0.000000000000e+00 0.000000000000e+00 0.000000000000e+00
  -4.222240913240e-01 6.700679958426e-02 0.000000000000e+00
  -4.111442061470e-01 1.925225075250e-01 0.000000000000e+00
  -3.907353302609e-01 2.946228837981e-01 0.000000000000e+00
  -3.638751639249e-01 3.638751639249e-01 0.000000000000e+00
  -3.336261216467e-01 3.978472025470e-01 0.000000000000e+00
  -3.024049477563e-01 4.004605596816e-01 0.000000000000e+00
  -2.715768978905e-01 3.797884135976e-01 0.000000000000e+00
  -2.415279383306e-01 3.453554845062e-01 0.000000000000e+00
  -2.120392918962e-01 3.058874201221e-01 0.000000000000e+00
  -1.827120529364e-01 2.679916346589e-01 0.000000000000e+00
  -1.532651469757e-01 2.357643704357e-01 0.000000000000e+00
  -1.236630870184e-01 2.110389886744e-01 0.000000000000e+00
  -9.412204413340e-02 1.939461890305e-01 0.000000000000e+00
  -6.505996567810e-02 1.835426404616e-01 0.000000000000e+00
  -3.702939961548e-02 1.783682086844e-01 0.000000000000e+00
  -1.064553325791e-02 1.768654408626e-01 0.000000000000e+00
  1.348486521121e-02 1.776424415068e-01 0.000000000000e+00
  3.482490839571e-02 1.795950969667e-01 0.000000000000e+00
  5.295150359809e-02 1.819275646708e-01 0.000000000000e+00
  6.757998897919e-02 1.841162919117e-01 0.000000000000e+00
  7.857320163379e-02 1.858542742926e-01 0.000000000000e+00
  8.593963339552e-02 1.869973768119e-01 0.000000000000e+00