# vtk DataFile Version 3.0
Karman Output
ASCII
DATASET RECTILINEAR_GRID
DIMENSIONS 101 101 1
X_COORDINATES 101 float
   0.000000000000e+00   9.900990099010e-03   1.980198019802e-02   2.970297029703e-02   3.960396039604e-02   4.950495049505e-02   5.940594059406e-02   6.930693069307e-02   7.920792079208e-02   8.910891089109e-02   9.900990099010e-02   1.089108910891e-01   1.188118811881e-01   1.287128712871e-01   1.386138613861e-01   1.485148514851e-01   1.584158415842e-01   1.683168316832e-01   1.782178217822e-01   1.881188118812e-01   1.980198019802e-01   2.079207920792e-01   2.178217821782e-01   2.277227722772e-01   2.376237623762e-01   2.475247524752e-01   2.574257425743e-01   2.673267326733e-01   2.772277227723e-01   2.871287128713e-01   2.970297029703e-01   3.069306930693e-01   3.168316831683e-01   3.267326732673e-01   3.366336633663e-01   3.465346534653e-01   3.564356435644e-01   3.663366336634e-01   3.762376237624e-01   3.861386138614e-01   3.960396039604e-01   4.059405940594e-01   4.158415841584e-01   4.257425742574e-01   4.356435643564e-01   4.455445544554e-01   4.554455445545e-01   4.653465346535e-01   4.752475247525e-01   4.851485148515e-01   4.950495049505e-01   5.049504950495e-01   5.148514851485e-01   5.247524752475e-01   5.346534653465e-01   5.445544554455e-01   5.544554455446e-01   5.643564356436e-01   5.742574257426e-01   5.841584158416e-01   5.940594059406e-01   6.039603960396e-01   6.138613861386e-01   6.237623762376e-01   6.336633663366e-01   6.435643564356e-01   6.534653465347e-01   6.633663366337e-01   6.732673267327e-01   6.831683168317e-01   6.930693069307e-01   7.029702970297e-01   7.128712871287e-01   7.227722772277e-01   7.326732673267e-01   7.425742574257e-01   7.524752475248e-01   7.623762376238e-01   7.722772277228e-01   7.821782178218e-01   7.920792079208e-01   8.019801980198e-01   8.118811881188e-01   8.217821782178e-01   8.316831683168e-01   8.415841584158e-01   8.514851485149e-01   8.613861386139e-01   8.712871287129e-01   8.811881188119e-01   8.910891089109e-01   9.009900990099e-01   9.108910891089e-01   9.207920792079e-01   9.306930693069e-01   9.405940594059e-01   9.504950495050e-01   9.603960396040e-01   9.702970297030e-01   9.801980198020e-01   9.900990099010e-01
Y_COORDINATES 101 float
   0.000000000000e+00   9.900990099010e-03   1.980198019802e-02   2.970297029703e-02   3.960396039604e-02   4.950495049505e-02   5.940594059406e-02   6.930693069307e-02   7.920792079208e-02   8.910891089109e-02   9.900990099010e-02   1.089108910891e-01   1.188118811881e-01   1.287128712871e-01   1.386138613861e-01   1.485148514851e-01   1.584158415842e-01   1.683168316832e-01   1.782178217822e-01   1.881188118812e-01   1.980198019802e-01   2.079207920792e-01   2.178217821782e-01   2.277227722772e-01   2.376237623762e-01   2.475247524752e-01   2.574257425743e-01   2.673267326733e-01   2.772277227723e-01   2.871287128713e-01   2.970297029703e-01   3.069306930693e-01   3.168316831683e-01   3.267326732673e-01   3.366336633663e-01   3.465346534653e-01   3.564356435644e-01   3.663366336634e-01   3.762376237624e-01   3.861386138614e-01   3.960396039604e-01   4.059405940594e-01   4.158415841584e-01   4.257425742574e-01   4.356435643564e-01   4.455445544554e-01   4.554455445545e-01   4.653465346535e-01   4.752475247525e-01   4.851485148515e-01   4.950495049505e-01   5.049504950495e-01   5.148514851485e-01   5.247524752475e-01   5.346534653465e-01   5.445544554455e-01   5.544554455446e-01   5.643564356436e-01   5.742574257426e-01   5.841584158416e-01   5.940594059406e-01   6.039603960396e-01   6.138613861386e-01   6.237623762376e-01   6.336633663366e-01   6.435643564356e-01   6.534653465347e-01   6.633663366337e-01   6.732673267327e-01   6.831683168317e-01   6.930693069307e-01   7.029702970297e-01   7.128712871287e-01   7.227722772277e-01   7.326732673267e-01   7.425742574257e-01   7.524752475248e-01   7.623762376238e-01   7.722772277228e-01   7.821782178218e-01   7.920792079208e-01   8.019801980198e-01   8.118811881188e-01   8.217821782178e-01   8.316831683168e-01   8.415841584158e-01   8.514851485149e-01   8.613861386139e-01   8.712871287129e-01   8.811881188119e-01   8.910891089109e-01   9.009900990099e-01   9.108910891089e-01   9.207920792079e-01   9.306930693069e-01   9.405940594059e-01   9.504950495050e-01   9.603960396040e-01   9.702970297030e-01   9.801980198020e-01   9.900990099010e-01
Z_COORDINATES 1 float
  0.000000000000e+00
POINT_DATA 10201
VECTORS E_field float
  0.000000000000e+00 0.000000000000e+00 0.000000000000e+00
  0.000000000000e+00 0.000000000000e+00 0.000000000000e+00
  0.000000000000e+00 0.000000000000e+00 0.000000000000e+00
  0.000000000000e+00 0.000000000000e+00 0.000000000000e+00
  0.000000000000e+00 0.000000000000e+00 0.000000000000e+00
  0.000000000000e+00 0.000000000000e+00 0.000000000000e+00
  0.000000000000e+00 0.000000000000e+00 0.000000000000e+00
  0.000000000000e+00 0.000000000000e+00 0.000000000000e+00
  0.000000000000e+00 0.000000000000e+00 0.000000000000e+00
  0.000000000000e+00 0.000000000000e+00 0.000000000000e+00
  0.000000000000e+00 0.000000000000e+00 0.000000000000e+00
  0.000000000000e+00 0.000000000000e+00 0.000000000000e+00
  0.000000000000e+00 0.000000000000e+00 0.000000000000e+00
  0.000000000000e+00 0.000000000000e+00 0.000000000000e+00
  0.000000000000e+00 0.000000000000e+00 0.000000000000e+00
  0.000000000000e+00 0.000000000000e+00 0.000000000000e+00
  0.000000000000e+00 0.000000000000e+00 0.000000000000e+00
  0.000000000000e+00 0.000000000000e+00 0.000000000000e+00
  0.000000000000e+00 0.000000000000e+00 0.000000000000e+00
  0.000000000000e+00 0.000000000000e+00 0.000000000000e+00
  0.000000000000e+00 0.000000000000e+00 0.000000000000e+00
  0.000000000000e+00 0.000000000000e+00 0.000000000000e+00
  0.000000000000e+00 0.000000000000e+00 0.000000000000e+00
  0.000000000000e+00 0.000000000000e+00 0.000000000000e+00
  0.000000000000e+00 0.000000000000e+00 0.000000000000e+00
  0.000000000000e+00 0.000000000000e+00 0.000000000000e+00
  0.000000000000e+00 0.000000000000e+00 0.000000000000e+00
  0.000000000000e+00 0.000000000000e+00 0.000000000000e+00
  0.000000000000e+00 0.000000000000e+00 0.000000000000e+00
  0.000000000000e+00 0.000000000000e+00 0.000000000000e+00
  0.000000000000e+00 0.000000000000e+00 0.000000000000e+00
  0.000000000000e+00 0.000000000000e+00 0.000000000000e+00
  0.000000000000e+00 0.000000000000e+00 0.000000000000e+00
  0.000000000000e+00 0.000000000000e+00 0.000000000000e+00
  0.000000000000e+00 0.000000000000e+00 0.000000000000e+00
  0.000000000000e+00 0.000000000000e+00 0.000000000000e+00
  0.000000000000e+00 0.000000000000e+00 0.000000000000e+00
  0.000000000000e+00 0.000000000000e+00 0.000000000000e+00
  0.000000000000e+00 0.000000000000e+00 0.000000000000e+00
  0.000000000000e+00 0.000000000000e+00 0.000000000000e+00
  0.000000000000e+00 0.000000000000e+00 0.000000000000e+00
  0.000000000000e+00 0.000000000000e+00 0.000000000000e+00
  0.000000000000e+00 0.000000000000e+00 0.000000000000e+00
  0.000000000000e+00 0.000000000000e+00 0.000000000000e+00
  0.000000000000e+00 0.000000000000e+00 0.000000000000e+00
  0.000000000000e+00 0.000000000000e+00 0.000000000000e+00
  0.000000000000e+00 0.000000000000e+00 0.000000000000e+00
  0.000000000000e+00 0.000000000000e+00 0.000000000000e+00
  0.000000000000e+00 0.000000000000e+00 0.000000000000e+00
  0.000000000000e+00 0.000000000000e+00 0.000000000000e+00
  0.000000000000e+00 0.000000000000e+00 0.000000000000e+00
  0.000000000000e+00 0.000000000000e+00 0.000000000000e+00
  0.000000000000e+00 0.000000000000e+00 0.000000000000e+00
  0.000000000000e+00 0.000000000000e+00 0.000000000000e+00
  0.000000000000e+00 0.000000000000e+00 0.000000000000e+00
  0.000000000000e+00 0.000000000000e+00 0.000000000000e+00
  0.000000000000e+00 0.000000000000e+00 0.000000000000e+00
  0.000000000000e+00 0.000000000000e+00 0.000000000000e+00
  0.000000000000e+00 0.000000000000e+00 0.000000000000e+00
  0.000000000000e+00 0.000000000000e+00 0.000000000000e+00
  0.000000000000e+00 0.000000000000e+00 0.000000000000e+00
  0.000000000000e+00 0.000000000000e+00 0.000000000000e+00
  0.000000000000e+00 0.000000000000e+00 0.000000000000e+00
  0.000000000000e+00 0.000000000000e+00 0.000000000000e+00
  0.000000000000e+00 0.000000000000e+00 0.000000000000e+00
  0.000000000000e+00 0.000000000000e+00 0.000000000000e+00
  0.000000000000e+00 0.000000000000e+00 0.000000000000e+00
  0.000000000000e+00 0.000000000000e+00 0.000000000000e+00
  0.000000000000e+00 0.000000000000e+00 0.000000000000e+00
  0.000000000000e+00 0.000000000000e+00 0.000000000000e+00
  0.000000000000e+00 0.000000000000e+00 0.000000000000e+00
  0.000000000000e+00 0.000000000000e+00 0.000000000000e+00
  0.000000000000e+00 0.000000000000e+00 0.000000000000e+00
  0.000000000000e+00 0.000000000000e+00 0.000000000000e+00
  0.000000000000e+00 0.000000000000e+00 0.000000000000e+00
  0.000000000000e+00 0.000000000000e+00 0.000000000000e+00
  0.000000000000e+00 0.000000000000e+00 0.000000000000e+00
  0.000000000000e+00 0.000000000000e+00 0.000000000000e+00
  0.000000000000e+00 0.000000000000e+00 0.000000000000e+00
  0.000000000000e+00 0.000000000000e+00 0.000000000000e+00
  0.000000000000e+00 0.000000000000e+00 0.000000000000e+00
  0.000000000000e+00 0.000000000000e+00 0.000000000000e+00
  0.000000000000e+00 0.000000000000e+00 0.000000000000e+00
  0.000000000000e+00 0.000000000000e+00 0.000000000000e+00
  0.000000000000e+00 0.000000000000e+00 0.000000000000e+00
  0.000000000000e+00 0.000000000000e+00 0.000000000000e+00
  0.000000000000e+00 0.000000000000e+00 0.000000000000e+00
  0.000000000000e+00 0.000000000000e+00 0.000000000000e+00
  0.000000000000e+00 0.000000000000e+00 0.000000000000e+00
  0.000000000000e+00 0.000000000000e+00 0.000000000000e+00
  0.000000000000e+00 0.000000000000e+00 0.000000000000e+00
  0.000000000000e+00 0.000000000000e+00 0.000000000000e+00
  0.000000000000e+00 0.000000000000e+00 0.000000000000e+00
  0.000000000000e+00 0.000000000000e+00 0.000000000000e+00
  0.000000000000e+00 0.000000000000e+00 0.000000000000e+00
  0.000000000000e+00 0.000000000000e+00 0.000000000000e+00
  0.000000000000e+00 0.000000000000e+00 0.000000000000e+00
  0.000000000000e+00 0.000000000000e+00 0.000000000000e+00
  0.000000000000e+00 0.000000000000e+00 0.000000000000e+00
  0.000000000000e+00 0.000000000000e+00 0.000000000000e+00
  0.000000000000e+00 0.000000000000e+00 0.000000000000e+00
  0.000000000000e+00 0.000000000000e+00 0.000000000000e+00
  -1.879711000029e-02 1.879711000029e-02 0.000000000000e+00
  -1.795455150583e-02 5.301852519263e-02 0.000000000000e+00
  -1.629135337344e-02 7.808858386121e-02 0.000000000000e+00
  -1.388366383749e-02 9.077123553590e-02 0.000000000000e+00
  -1.090406572423e-02 9.102023706887e-02 0.000000000000e+00
  -7.641875169548e-03 8.152922941018e-02 0.000000000000e+00
  -4.478719859300e-03 6.651246424917e-02 0.000000000000e+00
  -1.818862863639e-03 5.037378187467e-02 0.000000000000e+00
  2.720717797490e-06 3.685833879510e-02 0.000000000000e+00
  7.988583055209e-04 2.884969595206e-02 0.000000000000e+00
  5.641164516483e-04 2.849199667363e-02 0.000000000000e+00
  -5.476631396763e-04 3.715978417003e-02 0.000000000000e+00
  -2.289352321063e-03 5.507515399357e-02 0.000000000000e+00
  -4.399424614194e-03 8.082289500378e-02 0.000000000000e+00
  -6.661319052214e-03 1.112432522074e-01 0.000000000000e+00
  -8.925539686139e-03 1.420034450177e-01 0.000000000000e+00
  -1.109893659067e-02 1.687232090981e-01 0.000000000000e+00
  -1.312163752427e-02 1.881897731510e-01 0.000000000000e+00
  -1.495227977689e-02 1.991640630204e-01 0.000000000000e+00
  -1.656777109769e-02 2.025189401969e-01 0.000000000000e+00
  -1.796659297161e-02 2.007602462485e-01 0.000000000000e+00
  -1.915856358812e-02 1.971788989714e-01 0.000000000000e+00
  -2.013426925383e-02 1.949168721780e-01 0.000000000000e+00
  -2.082624063148e-02 1.961629997469e-01 0.000000000000e+00
  -2.108654278999e-02 2.016057889167e-01 0.000000000000e+00
  -2.070168018628e-02 2.101950036714e-01 0.000000000000e+00
  -1.944788804752e-02 2.192042989051e-01 0.000000000000e+00
  -1.716989418520e-02 2.245551617139e-01 0.000000000000e+00
  -1.385564098771e-02 2.213788173519e-01 0.000000000000e+00
  -9.681511602760e-03 2.048410120943e-01 0.000000000000e+00
  -5.012564145645e-03 1.712566492837e-01 0.000000000000e+00
  -3.538688503422e-04 1.193957288411e-01 0.000000000000e+00
  3.740156275083e-03 5.164521513781e-02 0.000000000000e+00
  6.780643895727e-03 -2.550562582287e-02 0.000000000000e+00
  8.455267580380e-03 -1.021461559605e-01 0.000000000000e+00
  8.702209743072e-03 -1.669050860305e-01 0.000000000000e+00
  7.720877925667e-03 -2.097171060875e-01 0.000000000000e+00
  5.913390361704e-03 -2.244360033903e-01 0.000000000000e+00
  3.776962312515e-03 -2.102830420325e-01 0.000000000000e+00
  1.785784709140e-03 -1.716150729137e-01 0.000000000000e+00
  3.011004001313e-04 -1.162966853829e-01 0.000000000000e+00
  -4.699205771278e-04 -5.357450018367e-02 0.000000000000e+00
  -4.707228434057e-04 7.617302060228e-03 0.000000000000e+00
  2.319321647246e-04 5.952530877994e-02 0.000000000000e+00
  1.478189002582e-03 9.588654586822e-02 0.000000000000e+00
  3.039692618689e-03 1.122347169727e-01 0.000000000000e+00
  4.643315597224e-03 1.065133411201e-01 0.000000000000e+00
  6.003087544577e-03 7.981058164141e-02 0.000000000000e+00
  6.863190696195e-03 3.671714105878e-02 0.000000000000e+00
  7.044514998828e-03 -1.511025444377e-02 0.000000000000e+00
  6.480790024024e-03 -6.623772636046e-02 0.000000000000e+00
  5.231786023261e-03 -1.072744313359e-01 0.000000000000e+00
  3.469204382887e-03 -1.306862228990e-01 0.000000000000e+00
  1.441107189847e-03 -1.320686054354e-01 0.000000000000e+00
  -5.721419666335e-04 -1.105672635000e-01 0.000000000000e+00
  -2.297276232932e-03 -6.851325523722e-02 0.000000000000e+00
  -3.496858703217e-03 -1.069023684814e-02 0.000000000000e+00
  -3.991319054204e-03 5.628201387081e-02 0.000000000000e+00
  -3.683434947835e-03 1.242829685947e-01 0.000000000000e+00
  -2.589486597260e-03 1.840622830310e-01 0.000000000000e+00
  -8.686279484415e-04 2.261785917537e-01 0.000000000000e+00
  1.168873940668e-03 2.427302056493e-01 0.000000000000e+00
  3.093070272940e-03 2.294512491441e-01 0.000000000000e+00
  4.429302312082e-03 1.872550321373e-01 0.000000000000e+00
  4.759940455615e-03 1.223790604849e-01 0.000000000000e+00
  3.821869324627e-03 4.490520149871e-02 0.000000000000e+00
  1.568925988591e-03 -3.380966672304e-02 0.000000000000e+00
  -1.817997323156e-03 -1.038138577197e-01 0.000000000000e+00
  -5.972101640494e-03 -1.584518175092e-01 0.000000000000e+00
  -1.041778638591e-02 -1.950355276010e-01 0.000000000000e+00
  -1.466247399893e-02 -2.144129467418e-01 0.000000000000e+00
  -1.828266421253e-02 -2.198934837956e-01 0.000000000000e+00
  -2.098742392631e-02 -2.160267034225e-01 0.000000000000e+00
  -2.264732655932e-02 -2.075463493837e-01 0.000000000000e+00
  -2.328384180695e-02 -1.985690610955e-01 0.000000000000e+00
  -2.302458752751e-02 -1.920180644559e-01 0.000000000000e+00
  -2.204150960608e-02 -1.892492371117e-01 0.000000000000e+00
  -2.049587062836e-02 -1.899167649217e-01 0.000000000000e+00
  -1.851003979134e-02 -1.921447228541e-01 0.000000000000e+00
  -1.617153654664e-02 -1.930372914275e-01 0.000000000000e+00
  -1.355744448316e-02 -1.894785175669e-01 0.000000000000e+00
  -1.075815283723e-02 -1.790698358823e-01 0.000000000000e+00
  -7.884332327558e-03 -1.609597530607e-01 0.000000000000e+00
  -5.056119129284e-03 -1.362818035737e-01 0.000000000000e+00
  -2.387503997071e-03 -1.079931782826e-01 0.000000000000e+00
  1.813507120407e-05 -8.011941060618e-02 0.000000000000e+00
  2.055256121658e-03 -5.668499769716e-02 0.000000000000e+00
  3.595237328381e-03 -4.077680856452e-02 0.000000000000e+00
  4.476146111130e-03 -3.409315283600e-02 0.000000000000e+00
  4.519410126837e-03 -3.699279870178e-02 0.000000000000e+00
  3.575899236750e-03 -4.871078196204e-02 0.000000000000e+00
  1.587016252363e-03 -6.735028596988e-02 0.000000000000e+00
  -1.364226528098e-03 -8.958351124684e-02 0.000000000000e+00
  -5.035638125721e-03 -1.104510798619e-01 0.000000000000e+00
  -9.052135293820e-03 -1.238279040881e-01 0.000000000000e+00
  -1.296797115304e-02 -1.238092826356e-01 0.000000000000e+00
  -1.634292818245e-02 -1.066550904880e-01 0.000000000000e+00
  -1.880795047520e-02 -7.245681346186e-02 0.000000000000e+00
  -2.010552038197e-02 -2.569385454793e-02 0.000000000000e+00
  0.000000000000e+00 0.000000000000e+00 0.000000000000e+00
  0.000000000000e+00 0.000000000000e+00 0.000000000000e+00
  -5.301852519263e-02 1.795455150583e-02 0.000000000000e+00
  -5.050890473817e-02 5.050890473817e-02 0.000000000000e+00
  -4.557529923945e-02 7.400140068455e-02 0.000000000000e+00
  -3.847361421477e-02 8.534904415192e-02 0.000000000000e+00
  -2.973850998804e-02 8.472772611286e-02 0.000000000000e+00
  -2.022987630466e-02 7.505091612812e-02 0.000000000000e+00
  -1.105648923902e-02 6.065423515534e-02 0.000000000000e+00
  -3.377003784862e-03 4.589266851868e-02 0.000000000000e+00
  1.857659469351e-03 3.428320531544e-02 0.000000000000e+00
  4.122490047992e-03 2.836386126535e-02 0.000000000000e+00
  3.411634763676e-03 2.992342849853e-02 0.000000000000e+00
  1.740803478764e-04 4.007768635225e-02 0.000000000000e+00
  -4.873188952287e-03 5.894621029289e-02 0.000000000000e+00
  -1.097015667823e-02 8.515887872353e-02 0.000000000000e+00
  -1.748618701690e-02 1.156851932643e-01 0.000000000000e+00
  -2.398835824019e-02 1.463278958180e-01 0.000000000000e+00
  -3.021513032499e-02 1.727989272872e-01 0.000000000000e+00
  -3.601028829938e-02 1.919319138700e-01 0.000000000000e+00
  -4.127493966423e-02 2.025172159189e-01 0.000000000000e+00
  -4.595766813691e-02 2.054640070919e-01 0.000000000000e+00
  -5.005622379128e-02 2.033125568818e-01 0.000000000000e+00
  -5.358641465161e-02 1.993487498149e-01 0.000000000000e+00
  -5.650021055021e-02 1.966365228987e-01 0.000000000000e+00
  -5.858494064855e-02 1.972200505021e-01 0.000000000000e+00
  -5.940887418173e-02 2.016329738532e-01 0.000000000000e+00
  -5.836811699924e-02 2.087421989487e-01 0.000000000000e+00
  -5.484181990183e-02 2.158770143916e-01 0.000000000000e+00
  -4.840926904461e-02 2.191719015079e-01 0.000000000000e+00
  -3.905441793751e-02 2.140929732534e-01 0.000000000000e+00
  -2.728915991462e-02 1.961874687851e-01 0.000000000000e+00
  -1.415309664212e-02 1.621051818634e-01 0.000000000000e+00
  -1.078156435678e-03 1.108135607598e-01 0.000000000000e+00
  1.036453387841e-02 4.469066778001e-02 0.000000000000e+00
  1.878758511403e-02 -3.001461732047e-02 0.000000000000e+00
  2.330182142596e-02 -1.038260244578e-01 0.000000000000e+00
  2.372837990705e-02 -1.658987181740e-01 0.000000000000e+00
  2.063265381688e-02 -2.066464160314e-01 0.000000000000e+00
  1.516119772912e-02 -2.202277497864e-01 0.000000000000e+00
  8.737302185421e-03 -2.059309720305e-01 0.000000000000e+00
  2.724457955073e-03 -1.679631210626e-01 0.000000000000e+00
  -1.831768917108e-03 -1.139077260252e-01 0.000000000000e+00
  -4.323992077559e-03 -5.270021536632e-02 0.000000000000e+00
  -4.576586284997e-03 6.996413764481e-03 0.000000000000e+00
  -2.770952888265e-03 5.763790872909e-02 0.000000000000e+00
  6.386871914734e-04 9.311804906846e-02 0.000000000000e+00
  4.995263546683e-03 1.090851338736e-01 0.000000000000e+00
  9.508384198612e-03 1.035461806617e-01 0.000000000000e+00
  1.334877873353e-02 7.757757568501e-02 0.000000000000e+00
  1.577476443051e-02 3.566405822235e-02 0.000000000000e+00
  1.626823881701e-02 -1.473197025817e-02 0.000000000000e+00
  1.463965364487e-02 -6.442370038246e-02 0.000000000000e+00
  1.106609425071e-02 -1.042658939259e-01 0.000000000000e+00
  6.049983593446e-03 -1.269160680411e-01 0.000000000000e+00
  3.151712364496e-04 -1.280758507924e-01 0.000000000000e+00
  -5.322308861276e-03 -1.069092889522e-01 0.000000000000e+00
  -1.007060137811e-02 -6.569780307338e-02 0.000000000000e+00
  -1.324735143247e-02 -9.129356560647e-03 0.000000000000e+00
  -1.434437491130e-02 5.631261734336e-02 0.000000000000e+00
  -1.309737125023e-02 1.226974772925e-01 0.000000000000e+00
  -9.572963592182e-03 1.810294182722e-01 0.000000000000e+00
  -4.249442031657e-03 2.221670762614e-01 0.000000000000e+00
  1.963532288022e-03 2.384912449013e-01 0.000000000000e+00
  7.818707833045e-03 2.259108379921e-01 0.000000000000e+00
  1.194882308265e-02 1.853290959850e-01 0.000000000000e+00
  1.315903759961e-02 1.227641439667e-01 0.000000000000e+00
  1.070467974606e-02 4.791254699523e-02 0.000000000000e+00
  4.466240443839e-03 -2.832562958503e-02 0.000000000000e+00
  -5.026669209313e-03 -9.641806189489e-02 0.000000000000e+00
  -1.671730577997e-02 -1.500028724471e-01 0.000000000000e+00
  -2.924410174402e-02 -1.865119919542e-01 0.000000000000e+00
  -4.120177802809e-02 -2.067341184918e-01 0.000000000000e+00
  -5.138349845436e-02 -2.137704014059e-01 0.000000000000e+00
  -5.895823383686e-02 -2.118702907161e-01 0.000000000000e+00
  -6.355164934076e-02 -2.054494439533e-01 0.000000000000e+00
  -6.521787319480e-02 -1.983632274242e-01 0.000000000000e+00
  -6.431721235938e-02 -1.933838132420e-01 0.000000000000e+00
  -6.134589082480e-02 -1.918378877816e-01 0.000000000000e+00
  -5.678210517422e-02 -1.934375388801e-01 0.000000000000e+00
  -5.100240951178e-02 -1.963894753952e-01 0.000000000000e+00
  -4.428382981207e-02 -1.978496218309e-01 0.000000000000e+00
  -3.686127932168e-02 -1.947028297175e-01 0.000000000000e+00
  -2.898601427847e-02 -1.845200804209e-01 0.000000000000e+00
  -2.094430939310e-02 -1.664250339171e-01 0.000000000000e+00
  -1.303485864638e-02 -1.415541866623e-01 0.000000000000e+00
  -5.538670143092e-03 -1.128855988295e-01 0.000000000000e+00
  1.279462564003e-03 -8.445076183462e-02 0.000000000000e+00
  7.126460491592e-03 -6.023776544676e-02 0.000000000000e+00
  1.162174761547e-02 -4.325930914552e-02 0.000000000000e+00
  1.427495140939e-02 -3.514476483167e-02 0.000000000000e+00
  1.454224292918e-02 -3.625174224160e-02 0.000000000000e+00
  1.196469545988e-02 -4.593078006283e-02 0.000000000000e+00
  6.346684348549e-03 -6.252339377338e-02 0.000000000000e+00
  -2.095406662820e-03 -8.301706965151e-02 0.000000000000e+00
  -1.267927362347e-02 -1.027622428990e-01 0.000000000000e+00
  -2.432715103082e-02 -1.158523664756e-01 0.000000000000e+00
  -3.574053829664e-02 -1.164555971230e-01 0.000000000000e+00
  -4.561974373580e-02 -1.007546135320e-01 0.000000000000e+00
  -5.285983136163e-02 -6.865218049934e-02 0.000000000000e+00
  -5.667934480469e-02 -2.438140416063e-02 0.000000000000e+00
  0.000000000000e+00 0.000000000000e+00 0.000000000000e+00
  0.000000000000e+00 0.000000000000e+00 0.000000000000e+00
  -7.808858386121e-02 1.629135337344e-02 0.000000000000e+00
  -7.400140068455e-02 4.557529923945e-02 0.000000000000e+00
  -6.602323106011e-02 6.602323106011e-02 0.000000000000e+00
  -5.465141013262e-02 7.485370782419e-02 0.000000000000e+00
  -4.081246409467e-02 7.264901217592e-02 0.000000000000e+00
  -2.589879446846e-02 6.270732675547e-02 0.000000000000e+00
  -1.163522648326e-02 4.956086947717e-02 0.000000000000e+00
  2.197425845552e-04 3.745157967487e-02 0.000000000000e+00
  8.246952528680e-03 2.946242096091e-02 0.000000000000e+00
  1.167781628628e-02 2.748895128363e-02 0.000000000000e+00
  1.052541201074e-02 3.266159804010e-02 0.000000000000e+00
  5.489019760895e-03 4.561346347632e-02 0.000000000000e+00
  -2.321103526042e-03 6.626782575593e-02 0.000000000000e+00
  -1.172125270012e-02 9.333438016051e-02 0.000000000000e+00
  -2.172322918863e-02 1.240276986545e-01 0.000000000000e+00
  -3.165400043711e-02 1.544183328995e-01 0.000000000000e+00
  -4.112980029791e-02 1.804110621512e-01 0.000000000000e+00
  -4.995656275028e-02 1.989416994327e-01 0.000000000000e+00
  -5.804018281276e-02 2.088557017835e-01 0.000000000000e+00
  -6.534405578482e-02 2.111121226720e-01 0.000000000000e+00
  -7.186824932987e-02 2.082871905011e-01 0.000000000000e+00
  -7.759692177698e-02 2.036329795030e-01 0.000000000000e+00
  -8.239109644402e-02 2.000602637762e-01 0.000000000000e+00
  -8.586705958254e-02 1.993570028615e-01 0.000000000000e+00
  -8.734340565096e-02 2.017963010954e-01 0.000000000000e+00
  -8.592534298191e-02 2.061200518549e-01 0.000000000000e+00
  -8.073143342335e-02 2.097789548294e-01 0.000000000000e+00
  -7.119817811783e-02 2.093041549073e-01 0.000000000000e+00
  -5.736222750690e-02 2.007699181360e-01 0.000000000000e+00
  -4.002827581807e-02 1.804113141910e-01 0.000000000000e+00
  -2.076483190356e-02 1.454818292711e-01 0.000000000000e+00
  -1.709017419689e-03 9.530615866322e-02 0.000000000000e+00
  1.479972293495e-02 3.224663921075e-02 0.000000000000e+00
  2.669249139446e-02 -3.788640844067e-02 0.000000000000e+00
  3.263820354921e-02 -1.064141817937e-01 0.000000000000e+00
  3.236549780724e-02 -1.634644135582e-01 0.000000000000e+00
  2.672268639969e-02 -2.003421831170e-01 0.000000000000e+00
  1.744234818890e-02 -2.117801883496e-01 0.000000000000e+00
  6.689653561801e-03 -1.972019432148e-01 0.000000000000e+00
  -3.443639682231e-03 -1.605460122831e-01 0.000000000000e+00
  -1.133293519378e-02 -1.088793122510e-01 0.000000000000e+00
  -1.601091990841e-02 -5.055842103758e-02 0.000000000000e+00
  -1.716854980451e-02 6.264843829844e-03 0.000000000000e+00
  -1.505226032420e-02 5.444755613814e-02 0.000000000000e+00
  -1.034334455700e-02 8.818984621449e-02 0.000000000000e+00
  -4.052929302003e-03 1.033663455501e-01 0.000000000000e+00
  2.588913968276e-03 9.811000549771e-02 0.000000000000e+00
  8.286426989754e-03 7.347584369423e-02 0.000000000000e+00
  1.188106298491e-02 3.374516885260e-02 0.000000000000e+00
  1.256669063570e-02 -1.399218269737e-02 0.000000000000e+00
  1.005398202993e-02 -6.102219406456e-02 0.000000000000e+00
  4.629364585730e-03 -9.866922344318e-02 0.000000000000e+00
  -2.910228992149e-03 -1.199570344608e-01 0.000000000000e+00
  -1.142141404726e-02 -1.207888872486e-01 0.000000000000e+00
  -1.962028332669e-02 -1.003599034930e-01 0.000000000000e+00
  -2.627052784270e-02 -6.084865192400e-02 0.000000000000e+00
  -3.032310895099e-02 -6.749176985225e-03 0.000000000000e+00
  -3.102008144718e-02 5.572643332367e-02 0.000000000000e+00
  -2.799991385011e-02 1.190164896775e-01 0.000000000000e+00
  -2.142340695703e-02 1.746094910169e-01 0.000000000000e+00
  -1.208616880422e-02 2.139262435471e-01 0.000000000000e+00
  -1.436622278282e-03 2.298695565745e-01 0.000000000000e+00
  8.578095107396e-03 2.186626332463e-01 0.000000000000e+00
  1.585170910118e-02 1.811735713893e-01 0.000000000000e+00
  1.856682052459e-02 1.229943425573e-01 0.000000000000e+00
  1.561326992882e-02 5.309025681326e-02 0.000000000000e+00
  6.843297173921e-03 -1.849492737029e-02 0.000000000000e+00
  -6.906401956411e-03 -8.300615534005e-02 0.000000000000e+00
  -2.401228328650e-02 -1.346182611088e-01 0.000000000000e+00
  -4.240653273140e-02 -1.709755578875e-01 0.000000000000e+00
  -5.996890986957e-02 -1.927504991382e-01 0.000000000000e+00
  -7.488250326720e-02 -2.026587069365e-01 0.000000000000e+00
  -8.589021182274e-02 -2.043995412478e-01 0.000000000000e+00
  -9.241157918897e-02 -2.018054105516e-01 0.000000000000e+00
  -9.450589187440e-02 -1.982467242865e-01 0.000000000000e+00
  -9.270338494068e-02 -1.962034841489e-01 0.000000000000e+00
  -8.776644452396e-02 -1.969264788261e-01 0.000000000000e+00
  -8.046642346826e-02 -2.002127545420e-01 0.000000000000e+00
  -7.144852967676e-02 -2.044118491872e-01 0.000000000000e+00
  -6.120754248029e-02 -2.067868149350e-01 0.000000000000e+00
  -5.013877506452e-02 -2.042569545195e-01 0.000000000000e+00
  -3.859951307051e-02 -1.943804826561e-01 0.000000000000e+00
  -2.693428927330e-02 -1.762715603645e-01 0.000000000000e+00
  -1.546570231856e-02 -1.510856979163e-01 0.000000000000e+00
  -4.491592093393e-03 -1.218243863039e-01 0.000000000000e+00
  5.671590160274e-03 -9.249328932097e-02 0.000000000000e+00
  1.459947713620e-02 -6.697012286391e-02 0.000000000000e+00
  2.167374153826e-02 -4.809650325431e-02 0.000000000000e+00
  2.607030675098e-02 -3.735733972952e-02 0.000000000000e+00
  2.687063022091e-02 -3.510678233347e-02 0.000000000000e+00
  2.328968634443e-02 -4.091724862518e-02 0.000000000000e+00
  1.495505959615e-02 -5.358428735142e-02 0.000000000000e+00
  2.137755212847e-03 -7.069678067879e-02 0.000000000000e+00
  -1.415678359821e-02 -8.820412609998e-02 0.000000000000e+00
  -3.228165989316e-02 -1.006377295723e-01 0.000000000000e+00
  -5.020265859550e-02 -1.023358480582e-01 0.000000000000e+00
  -6.583419594743e-02 -8.936361980573e-02 0.000000000000e+00
  -7.735929634539e-02 -6.127798620180e-02 0.000000000000e+00
  -8.346319407644e-02 -2.183218728406e-02 0.000000000000e+00
  0.000000000000e+00 0.000000000000e+00 0.000000000000e+00
  0.000000000000e+00 0.000000000000e+00 0.000000000000e+00
  -9.077123553590e-02 1.388366383749e-02 0.000000000000e+00
  -8.534904415192e-02 3.847361421477e-02 0.000000000000e+00
  -7.485370782419e-02 5.465141013262e-02 0.000000000000e+00
  -6.006932828630e-02 6.006932828630e-02 0.000000000000e+00
  -4.230694212300e-02 5.583205951256e-02 0.000000000000e+00
  -2.339214810784e-02 4.569581577745e-02 0.000000000000e+00
  -5.476786341031e-03 3.439345070318e-02 0.000000000000e+00
  9.312642019668e-03 2.597460102034e-02 0.000000000000e+00
  1.929246663201e-02 2.293236505898e-02 0.000000000000e+00
  2.356465253271e-02 2.631595752727e-02 0.000000000000e+00
  2.216171428514e-02 3.638993431958e-02 0.000000000000e+00
  1.594127315408e-02 5.314196057774e-02 0.000000000000e+00
  6.272932830239e-03 7.621779226529e-02 0.000000000000e+00
  -5.361199613767e-03 1.044186952692e-01 0.000000000000e+00
  -1.770615938290e-02 1.352903198035e-01 0.000000000000e+00
  -2.991041447264e-02 1.652907380888e-01 0.000000000000e+00
  -4.152268890227e-02 1.906267312524e-01 0.000000000000e+00
  -5.237463453115e-02 2.084047384128e-01 0.000000000000e+00
  -6.244276242120e-02 2.175444107559e-01 0.000000000000e+00
  -7.174786852793e-02 2.190323927784e-01 0.000000000000e+00
  -8.028780153842e-02 2.154310469503e-01 0.000000000000e+00