# vtk DataFile Version 3.0
Karman Output
ASCII
DATASET RECTILINEAR_GRID
DIMENSIONS 101 101 1
X_COORDINATES 101 float
   0.000000000000e+00   9.900990099010e-03   1.980198019802e-02   2.970297029703e-02   3.960396039604e-02   4.950495049505e-02   5.940594059406e-02   6.930693069307e-02   7.920792079208e-02   8.910891089109e-02   9.900990099010e-02   1.089108910891e-01   1.188118811881e-01   1.287128712871e-01   1.386138613861e-01   1.485148514851e-01   1.584158415842e-01   1.683168316832e-01   1.782178217822e-01   1.881188118812e-01   1.980198019802e-01   2.079207920792e-01   2.178217821782e-01   2.277227722772e-01   2.376237623762e-01   2.475247524752e-01   2.574257425743e-01   2.673267326733e-01   2.772277227723e-01   2.871287128713e-01   2.970297029703e-01   3.069306930693e-01   3.168316831683e-01   3.267326732673e-01   3.366336633663e-01   3.465346534653e-01   3.564356435644e-01   3.663366336634e-01   3.762376237624e-01   3.861386138614e-01   3.960396039604e-01   4.059405940594e-01   4.158415841584e-01   4.257425742574e-01   4.356435643564e-01   4.455445544554e-01   4.554455445545e-01   4.653465346535e-01   4.752475247525e-01   4.851485148515e-01   4.950495049505e-01   5.049504950495e-01   5.148514851485e-01   5.247524752475e-01   5.346534653465e-01   5.445544554455e-01   5.544554455446e-01   5.643564356436e-01   5.742574257426e-01   5.841584158416e-01   5.940594059406e-01   6.039603960396e-01   6.138613861386e-01   6.237623762376e-01   6.336633663366e-01   6.435643564356e-01   6.534653465347e-01   6.633663366337e-01   6.732673267327e-01   6.831683168317e-01   6.930693069307e-01   7.029702970297e-01   7.128712871287e-01   7.227722772277e-01   7.326732673267e-01   7.425742574257e-01   7.524752475248e-01   7.623762376238e-01   7.722772277228e-01   7.821782178218e-01   7.920792079208e-01   8.019801980198e-01   8.118811881188e-01   8.217821782178e-01   8.316831683168e-01   8.415841584158e-01   8.514851485149e-01   8.613861386139e-01   8.712871287129e-01   8.811881188119e-01   8.910891089109e-01   9.009900990099e-01   9.108910891089e-01   9.207920792079e-01   9.306930693069e-01   9.405940594059e-01   9.504950495050e-01   9.603960396040e-01   9.702970297030e-01   9.801980198020e-01   9.900990099010e-01
Y_COORDINATES 101 float
   0.000000000000e+00   9.900990099010e-03   1.980198019802e-02   2.970297029703e-02   3.960396039604e-02   4.950495049505e-02   5.940594059406e-02   6.930693069307e-02   7.920792079208e-02   8.910891089109e-02   9.900990099010e-02   1.089108910891e-01   1.188118811881e-01   1.287128712871e-01   1.386138613861e-01   1.485148514851e-01   1.584158415842e-01   1.683168316832e-01   1.782178217822e-01   1.881188118812e-01   1.980198019802e-01   2.079207920792e-01   2.178217821782e-01   2.277227722772e-01   2.376237623762e-01   2.475247524752e-01   2.574257425743e-01   2.673267326733e-01   2.772277227723e-01   2.871287128713e-01   2.970297029703e-01   3.069306930693e-01   3.168316831683e-01   3.267326732673e-01   3.366336633663e-01   3.465346534653e-01   3.564356435644e-01   3.663366336634e-01   3.762376237624e-01   3.861386138614e-01   3.960396039604e-01   4.059405940594e-01   4.158415841584e-01   4.257425742574e-01   4.356435643564e-01   4.455445544554e-01   4.554455445545e-01   4.653465346535e-01   4.752475247525e-01   4.851485148515e-01   4.950495049505e-01   5.049504950495e-01   5.148514851485e-01   5.247524752475e-01   5.346534653465e-01   5.445544554455e-01   5.544554455446e-01   5.643564356436e-01   5.742574257426e-01   5.841584158416e-01   5.940594059406e-01   6.039603960396e-01   6.138613861386e-01   6.237623762376e-01   6.336633663366e-01   6.435643564356e-01   6.534653465347e-01   6.633663366337e-01   6.732673267327e-01   6.831683168317e-01   6.930693069307e-01   7.029702970297e-01   7.128712871287e-01   7.227722772277e-01   7.326732673267e-01   7.425742574257e-01   7.524752475248e-01   7.623762376238e-01   7.722772277228e-01   7.821782178218e-01   7.920792079208e-01   8.019801980198e-01   8.118811881188e-01   8.217821782178e-01   8.316831683168e-01   8.415841584158e-01   8.514851485149e-01   8.613861386139e-01   8.712871287129e-01   8.811881188119e-01   8.910891089109e-01   9.009900990099e-01   9.108910891089e-01   9.207920792079e-01   9.306930693069e-01   9.405940594059e-01   9.504950495050e-01   9.603960396040e-01   9.702970297030e-01   9.801980198020e-01   9.900990099010e-01
Z_COORDINATES 1 float
  0.000000000000e+00
POINT_DATA 10201
VECTORS E_field float
  0.000000000000e+00 0.000000000000e+00 0.000000000000e+00
  0.000000000000e+00 0.000000000000e+00 0.000000000000e+00
  0.000000000000e+00 0.000000000000e+00 0.000000000000e+00
  0.000000000000e+00 0.000000000000e+00 0.000000000000e+00
  0.000000000000e+00 0.000000000000e+00 0.000000000000e+00
  0.000000000000e+00 0.000000000000e+00 0.000000000000e+00
  0.000000000000e+00 0.000000000000e+00 0.000000000000e+00
  0.000000000000e+00 0.000000000000e+00 0.000000000000e+00
  0.000000000000e+00 0.000000000000e+00 0.000000000000e+00
  0.000000000000e+00 0.000000000000e+00 0.000000000000e+00
  0.000000000000e+00 0.000000000000e+00 0.000000000000e+00
  0.000000000000e+00 0.000000000000e+00 0.000000000000e+00
  0.000000000000e+00 0.000000000000e+00 0.000000000000e+00
  0.000000000000e+00 0.000000000000e+00 0.000000000000e+00
  0.000000000000e+00 0.000000000000e+00 0.000000000000e+00
  0.000000000000e+00 0.000000000000e+00 0.000000000000e+00
  0.000000000000e+00 0.000000000000e+00 0.000000000000e+00
  0.000000000000e+00 0.000000000000e+00 0.000000000000e+00
  0.000000000000e+00 0.000000000000e+00 0.000000000000e+00
  0.000000000000e+00 0.000000000000e+00 0.000000000000e+00
  0.000000000000e+00 0.000000000000e+00 0.000000000000e+00
  0.000000000000e+00 0.000000000000e+00 0.000000000000e+00
  0.000000000000e+00 0.000000000000e+00 0.000000000000e+00
  0.000000000000e+00 0.000000000000e+00 0.000000000000e+00
  0.000000000000e+00 0.000000000000e+00 0.000000000000e+00
  0.000000000000e+00 0.000000000000e+00 0.000000000000e+00
  0.000000000000e+00 0.000000000000e+00 0.000000000000e+00
  0.000000000000e+00 0.000000000000e+00 0.000000000000e+00
  0.000000000000e+00 0.000000000000e+00 0.000000000000e+00
  0.000000000000e+00 0.000000000000e+00 0.000000000000e+00
  0.000000000000e+00 0.000000000000e+00 0.000000000000e+00
  0.000000000000e+00 0.000000000000e+00 0.000000000000e+00
  0.000000000000e+00 0.000000000000e+00 0.000000000000e+00
  0.000000000000e+00 0.000000000000e+00 0.000000000000e+00
  0.000000000000e+00 0.000000000000e+00 0.000000000000e+00
  0.000000000000e+00 0.000000000000e+00 0.000000000000e+00
  0.000000000000e+00 0.000000000000e+00 0.000000000000e+00
  0.000000000000e+00 0.000000000000e+00 0.000000000000e+00
  0.000000000000e+00 0.000000000000e+00 0.000000000000e+00
  0.000000000000e+00 0.000000000000e+00 0.000000000000e+00
  0.000000000000e+00 0.000000000000e+00 0.000000000000e+00
  0.000000000000e+00 0.000000000000e+00 0.000000000000e+00
  0.000000000000e+00 0.000000000000e+00 0.000000000000e+00
  0.000000000000e+00 0.000000000000e+00 0.000000000000e+00
  0.000000000000e+00 0.000000000000e+00 0.000000000000e+00
  0.000000000000e+00 0.000000000000e+00 0.000000000000e+00
  0.000000000000e+00 0.000000000000e+00 0.000000000000e+00
  0.000000000000e+00 0.000000000000e+00 0.000000000000e+00
  0.000000000000e+00 0.000000000000e+00 0.000000000000e+00
  0.000000000000e+00 0.000000000000e+00 0.000000000000e+00
  0.000000000000e+00 0.000000000000e+00 0.000000000000e+00
  0.000000000000e+00 0.000000000000e+00 0.000000000000e+00
  0.000000000000e+00 0.000000000000e+00 0.000000000000e+00
  0.000000000000e+00 0.000000000000e+00 0.000000000000e+00
  0.000000000000e+00 0.000000000000e+00 0.000000000000e+00
  0.000000000000e+00 0.000000000000e+00 0.000000000000e+00
  0.000000000000e+00 0.000000000000e+00 0.000000000000e+00
  0.000000000000e+00 0.000000000000e+00 0.000000000000e+00
  0.000000000000e+00 0.000000000000e+00 0.000000000000e+00
  0.000000000000e+00 0.000000000000e+00 0.000000000000e+00
  0.000000000000e+00 0.000000000000e+00 0.000000000000e+00
  0.000000000000e+00 0.000000000000e+00 0.000000000000e+00
  0.000000000000e+00 0.000000000000e+00 0.000000000000e+00
  0.000000000000e+00 0.000000000000e+00 0.000000000000e+00
  0.000000000000e+00 0.000000000000e+00 0.000000000000e+00
  0.000000000000e+00 0.000000000000e+00 0.000000000000e+00
  0.000000000000e+00 0.000000000000e+00 0.000000000000e+00
  0.000000000000e+00 0.000000000000e+00 0.000000000000e+00
  0.000000000000e+00 0.000000000000e+00 0.000000000000e+00
  0.000000000000e+00 0.000000000000e+00 0.000000000000e+00
  0.000000000000e+00 0.000000000000e+00 0.000000000000e+00
  0.000000000000e+00 0.000000000000e+00 0.000000000000e+00
  0.000000000000e+00 0.000000000000e+00 0.000000000000e+00
  0.000000000000e+00 0.000000000000e+00 0.000000000000e+00
  0.000000000000e+00 0.000000000000e+00 0.000000000000e+00
  0.000000000000e+00 0.000000000000e+00 0.000000000000e+00
  0.000000000000e+00 0.000000000000e+00 0.000000000000e+00
  0.000000000000e+00 0.000000000000e+00 0.000000000000e+00
  0.000000000000e+00 0.000000000000e+00 0.000000000000e+00
  0.000000000000e+00 0.000000000000e+00 0.000000000000e+00
  0.000000000000e+00 0.000000000000e+00 0.000000000000e+00
  0.000000000000e+00 0.000000000000e+00 0.000000000000e+00
  0.000000000000e+00 0.000000000000e+00 0.000000000000e+00
  0.000000000000e+00 0.000000000000e+00 0.000000000000e+00
  0.000000000000e+00 0.000000000000e+00 0.000000000000e+00
  0.000000000000e+00 0.000000000000e+00 0.000000000000e+00
  0.000000000000e+00 0.000000000000e+00 0.000000000000e+00
  0.000000000000e+00 0.000000000000e+00 0.000000000000e+00
  0.000000000000e+00 0.000000000000e+00 0.000000000000e+00
  0.000000000000e+00 0.000000000000e+00 0.000000000000e+00
  0.000000000000e+00 0.000000000000e+00 0.000000000000e+00
  0.000000000000e+00 0.000000000000e+00 0.000000000000e+00
  0.000000000000e+00 0.000000000000e+00 0.000000000000e+00
  0.000000000000e+00 0.000000000000e+00 0.000000000000e+00
  0.000000000000e+00 0.000000000000e+00 0.000000000000e+00
  0.000000000000e+00 0.000000000000e+00 0.000000000000e+00
  0.000000000000e+00 0.000000000000e+00 0.000000000000e+00
  0.000000000000e+00 0.000000000000e+00 0.000000000000e+00
  0.000000000000e+00 0.000000000000e+00 0.000000000000e+00
  0.000000000000e+00 0.000000000000e+00 0.000000000000e+00
  0.000000000000e+00 0.000000000000e+00 0.000000000000e+00
  0.000000000000e+00 0.000000000000e+00 0.000000000000e+00
  -1.761170136707e-02 1.761170136707e-02 0.000000000000e+00
  -1.771215574757e-02 5.365737182481e-02 0.000000000000e+00
  -1.786382744381e-02 9.099359219698e-02 0.000000000000e+00
  -1.799140077095e-02 1.271992294240e-01 0.000000000000e+00
  -1.802863830496e-02 1.568510011696e-01 0.000000000000e+00
  -1.794836870846e-02 1.731692756798e-01 0.000000000000e+00
  -1.777265249696e-02 1.706822705290e-01 0.000000000000e+00
  -1.755891146705e-02 1.476350171722e-01 0.000000000000e+00
  -1.737063669743e-02 1.069953400935e-01 0.000000000000e+00
  -1.724860310631e-02 5.563555803228e-02 0.000000000000e+00
  -1.719564556265e-02 2.182083498515e-03 0.000000000000e+00
  -1.717779957663e-02 -4.540463029958e-02 0.000000000000e+00
  -1.713549354932e-02 -8.152796407414e-02 0.000000000000e+00
  -1.699738973777e-02 -1.035129676591e-01 0.000000000000e+00
  -1.669518922603e-02 -1.112339955770e-01 0.000000000000e+00
  -1.618197293429e-02 -1.063044908764e-01 0.000000000000e+00
  -1.545255455226e-02 -9.120516972828e-02 0.000000000000e+00
  -1.455427575589e-02 -6.847922813644e-02 0.000000000000e+00
  -1.357151305833e-02 -4.003448310874e-02 0.000000000000e+00
  -1.257636829156e-02 -6.703982857681e-03 0.000000000000e+00
  -1.155975008120e-02 3.167889095562e-02 0.000000000000e+00
  -1.037752799359e-02 7.555329999717e-02 0.000000000000e+00
  -8.749749464201e-03 1.244512618811e-01 0.000000000000e+00
  -6.331286074091e-03 1.758902954109e-01 0.000000000000e+00
  -2.838806374021e-03 2.249243354731e-01 0.000000000000e+00
  1.810477806871e-03 2.646719859786e-01 0.000000000000e+00
  7.403104418248e-03 2.877108620919e-01 0.000000000000e+00
  1.341835440034e-02 2.878799534351e-01 0.000000000000e+00
  1.911410271060e-02 2.619163678007e-01 0.000000000000e+00
  2.368844845771e-02 2.104536056494e-01 0.000000000000e+00
  2.647079523283e-02 1.381245382759e-01 0.000000000000e+00
  2.708616415447e-02 5.276274158703e-02 0.000000000000e+00
  2.554449084800e-02 -3.605518382230e-02 0.000000000000e+00
  2.223030222747e-02 -1.186838076101e-01 0.000000000000e+00
  1.780047628589e-02 -1.868022180000e-01 0.000000000000e+00
  1.302758482489e-02 -2.342020002433e-01 0.000000000000e+00
  8.641602095601e-03 -2.569988065021e-01 0.000000000000e+00
  5.216497241328e-03 -2.536166395133e-01 0.000000000000e+00
  3.123361548341e-03 -2.249295893898e-01 0.000000000000e+00
  2.541075398652e-03 -1.746292315626e-01 0.000000000000e+00
  3.495040612573e-03 -1.094434556553e-01 0.000000000000e+00
  5.893541953946e-03 -3.864222146465e-02 0.000000000000e+00
  9.546841288720e-03 2.745222855784e-02 0.000000000000e+00
  1.417354488959e-02 7.962778350656e-02 0.000000000000e+00
  1.940923701982e-02 1.117926573339e-01 0.000000000000e+00
  2.482928698851e-02 1.219856449724e-01 0.000000000000e+00
  2.998647824470e-02 1.120315958607e-01 0.000000000000e+00
  3.445433468202e-02 8.617878796319e-02 0.000000000000e+00
  3.786515690909e-02 4.951681944305e-02 0.000000000000e+00
  3.993731992016e-02 6.953226753234e-03 0.000000000000e+00
  4.049367773623e-02 -3.692339059528e-02 0.000000000000e+00
  3.947600936907e-02 -7.735999637221e-02 0.000000000000e+00
  3.695720727374e-02 -1.089996476020e-01 0.000000000000e+00
  3.314629278572e-02 -1.261339708254e-01 0.000000000000e+00
  2.837727403804e-02 -1.238699479611e-01 0.000000000000e+00
  2.307608230023e-02 -9.982575708843e-02 0.000000000000e+00
  1.770989185425e-02 -5.552990670181e-02 0.000000000000e+00
  1.273352315079e-02 3.287146426678e-03 0.000000000000e+00
  8.549655603542e-03 6.780936503296e-02 0.000000000000e+00
  5.489360941694e-03 1.282320897405e-01 0.000000000000e+00
  3.802750844927e-03 1.759196732687e-01 0.000000000000e+00
  3.639211525679e-03 2.047703425796e-01 0.000000000000e+00
  5.003410142710e-03 2.115035991855e-01 0.000000000000e+00
  7.695876783932e-03 1.952435714811e-01 0.000000000000e+00
  1.127130799175e-02 1.570604195059e-01 0.000000000000e+00
  1.505566429667e-02 9.989630513025e-02 0.000000000000e+00
  1.824553570248e-02 2.878674078750e-02 0.000000000000e+00
  2.007700743113e-02 -4.909061134139e-02 0.000000000000e+00
  2.001517551555e-02 -1.249915904623e-01 0.000000000000e+00
  1.789869582736e-02 -1.899059955417e-01 0.000000000000e+00
  1.398511086929e-02 -2.362648983826e-01 0.000000000000e+00
  8.877120229165e-03 -2.595002802893e-01 0.000000000000e+00
  3.352588443067e-03 -2.589297564049e-01 0.000000000000e+00
  -1.845077218170e-03 -2.376642263826e-01 0.000000000000e+00
  -6.186936749934e-03 -2.015487999401e-01 0.000000000000e+00
  -9.452530859732e-03 -1.574591949957e-01 0.000000000000e+00
  -1.171502281038e-02 -1.115090885808e-01 0.000000000000e+00
  -1.323614503742e-02 -6.778368498901e-02 0.000000000000e+00
  -1.432247821467e-02 -2.802493629207e-02 0.000000000000e+00
  -1.520431630949e-02 7.712862765776e-03 0.000000000000e+00
  -1.598039467202e-02 3.985611669567e-02 0.000000000000e+00
  -1.663547579034e-02 6.818971215460e-02 0.000000000000e+00
  -1.710286928211e-02 9.131706938226e-02 0.000000000000e+00
  -1.732911681206e-02 1.068132685198e-01 0.000000000000e+00
  -1.730903769257e-02 1.118328050374e-01 0.000000000000e+00
  -1.708518498093e-02 1.038554526917e-01 0.000000000000e+00
  -1.672729193770e-02 8.142481111370e-02 0.000000000000e+00
  -1.631147509911e-02 4.489850163009e-02 0.000000000000e+00
  -1.590795079365e-02 -2.849054595139e-03 0.000000000000e+00
  -1.557325610829e-02 -5.610823107019e-02 0.000000000000e+00
  -1.534032555572e-02 -1.068971270363e-01 0.000000000000e+00
  -1.520753692855e-02 -1.466461570310e-01 0.000000000000e+00
  -1.513607964611e-02 -1.686114179308e-01 0.000000000000e+00
  -1.506404541866e-02 -1.700246941238e-01 0.000000000000e+00
  -1.493512616354e-02 -1.528964175555e-01 0.000000000000e+00
  -1.472832585893e-02 -1.229592859453e-01 0.000000000000e+00
  -1.447204957526e-02 -8.717662951908e-02 0.000000000000e+00
  -1.423377418404e-02 -5.099449495406e-02 0.000000000000e+00
  -1.408976958801e-02 -1.665542178631e-02 0.000000000000e+00
  0.000000000000e+00 0.000000000000e+00 0.000000000000e+00
  0.000000000000e+00 0.000000000000e+00 0.000000000000e+00
  -5.365737182481e-02 1.771215574757e-02 0.000000000000e+00
  -5.390382790824e-02 5.390382790824e-02 0.000000000000e+00
  -5.425243254553e-02 9.124741244708e-02 0.000000000000e+00
  -5.448327722173e-02 1.273038271773e-01 0.000000000000e+00
  -5.440508863850e-02 1.567054523671e-01 0.000000000000e+00
  -5.394407319896e-02 1.727735394463e-01 0.000000000000e+00
  -5.317400032371e-02 1.701322176758e-01 0.000000000000e+00
  -5.227499336742e-02 1.470723220392e-01 0.000000000000e+00
  -5.144628210945e-02 1.065410491989e-01 0.000000000000e+00
  -5.081987786309e-02 5.534141108939e-02 0.000000000000e+00
  -5.041416024400e-02 2.017555278646e-03 0.000000000000e+00
  -5.013661470300e-02 -4.553549360672e-02 0.000000000000e+00
  -4.981784126044e-02 -8.175818023685e-02 0.000000000000e+00
  -4.925456053952e-02 -1.039841360289e-01 0.000000000000e+00
  -4.825485758678e-02 -1.120647306718e-01 0.000000000000e+00
  -4.669124709665e-02 -1.075505825635e-01 0.000000000000e+00
  -4.455661834355e-02 -9.282312517625e-02 0.000000000000e+00
  -4.199094858937e-02 -7.032522123903e-02 0.000000000000e+00
  -3.923294593627e-02 -4.192925535682e-02 0.000000000000e+00
  -3.647707483042e-02 -8.560226482214e-03 0.000000000000e+00
  -3.367763756901e-02 2.971907910837e-02 0.000000000000e+00
  -3.039888630170e-02 7.305213848950e-02 0.000000000000e+00
  -2.581860934110e-02 1.207443678987e-01 0.000000000000e+00
  -1.893601748407e-02 1.702961341461e-01 0.000000000000e+00
  -8.938992797359e-03 2.170289923511e-01 0.000000000000e+00
  4.398130437325e-03 2.545809216849e-01 0.000000000000e+00
  2.044370615464e-02 2.761637240568e-01 0.000000000000e+00
  3.768358858623e-02 2.761719590565e-01 0.000000000000e+00
  5.397475978222e-02 2.516374426731e-01 0.000000000000e+00
  6.701497193684e-02 2.031179728754e-01 0.000000000000e+00
  7.489335940497e-02 1.347994368068e-01 0.000000000000e+00
  7.655974492867e-02 5.380608861099e-02 0.000000000000e+00
  7.207495451995e-02 -3.107206713063e-02 0.000000000000e+00
  6.257379763928e-02 -1.108515787997e-01 0.000000000000e+00
  4.996549651761e-02 -1.775963197455e-01 0.000000000000e+00
  3.648089949184e-02 -2.251504100080e-01 0.000000000000e+00
  2.421790690188e-02 -2.494014214130e-01 0.000000000000e+00
  1.481713809963e-02 -2.483881509376e-01 0.000000000000e+00
  9.328380086964e-03 -2.225761842469e-01 0.000000000000e+00
  8.241577822262e-03 -1.753135482717e-01 0.000000000000e+00
  1.159878502684e-02 -1.130703113371e-01 0.000000000000e+00
  1.910114543559e-02 -4.491622749569e-02 0.000000000000e+00
  3.016850243560e-02 1.900557830199e-02 0.000000000000e+00
  4.396327286048e-02 6.965295979492e-02 0.000000000000e+00
  5.941923977448e-02 1.010758220683e-01 0.000000000000e+00
  7.530771648935e-02 1.113939536268e-01 0.000000000000e+00
  9.034307947333e-02 1.024307330391e-01 0.000000000000e+00
  1.033033319697e-01 7.835154191867e-02 0.000000000000e+00
  1.131364157839e-01 4.410015950208e-02 0.000000000000e+00
  1.190378256655e-01 4.396313839851e-03 0.000000000000e+00
  1.205043559024e-01 -3.638936571826e-02 0.000000000000e+00
  1.173765830684e-01 -7.374858005493e-02 0.000000000000e+00
  1.098735801469e-01 -1.025892589320e-01 0.000000000000e+00
  9.860560681202e-02 -1.174654717215e-01 0.000000000000e+00
  8.454020451824e-02 -1.137040260869e-01 0.000000000000e+00
  6.890677131659e-02 -8.905705409464e-02 0.000000000000e+00
  5.305263012521e-02 -4.507827813155e-02 0.000000000000e+00
  3.829180775564e-02 1.257270885967e-02 0.000000000000e+00
  2.579260429277e-02 7.520687354784e-02 0.000000000000e+00
  1.652131180600e-02 1.331661683219e-01 0.000000000000e+00
  1.121317775074e-02 1.779803387976e-01 0.000000000000e+00
  1.031346005887e-02 2.037729340302e-01 0.000000000000e+00
  1.385049773836e-02 2.075997714157e-01 0.000000000000e+00
  2.126601944089e-02 1.890394108917e-01 0.000000000000e+00
  3.129612418356e-02 1.496590441347e-01 0.000000000000e+00
  4.201889620355e-02 9.279055217024e-02 0.000000000000e+00
  5.113560615452e-02 2.358591238701e-02 0.000000000000e+00
  5.645055540432e-02 -5.103620392145e-02 0.000000000000e+00
  5.641221981775e-02 -1.229458303813e-01 0.000000000000e+00
  5.052956948933e-02 -1.839526256067e-01 0.000000000000e+00
  3.950798318661e-02 -2.272830970570e-01 0.000000000000e+00
  2.504578046667e-02 -2.489118882549e-01 0.000000000000e+00
  9.353645270097e-03 -2.483014814567e-01 0.000000000000e+00
  -5.443219733269e-03 -2.282979706663e-01 0.000000000000e+00
  -1.782260718216e-02 -1.941938086757e-01 0.000000000000e+00
  -2.713994760699e-02 -1.522312517254e-01 0.000000000000e+00
  -3.359236735641e-02 -1.080221201511e-01 0.000000000000e+00
  -3.792323966743e-02 -6.541865888070e-02 0.000000000000e+00
  -4.101302446388e-02 -2.621384442668e-02 0.000000000000e+00
  -4.353121596148e-02 9.301800492809e-03 0.000000000000e+00
  -4.577405523885e-02 4.128609660854e-02 0.000000000000e+00
  -4.770981429465e-02 6.935057241585e-02 0.000000000000e+00
  -4.915384451946e-02 9.206763283759e-02 0.000000000000e+00
  -4.995253066801e-02 1.070876387430e-01 0.000000000000e+00
  -5.008537046933e-02 1.116711954960e-01 0.000000000000e+00
  -4.966694142707e-02 1.033747804791e-01 0.000000000000e+00
  -4.889132156827e-02 8.077197042421e-02 0.000000000000e+00
  -4.797382062596e-02 4.421802453867e-02 0.000000000000e+00
  -4.711459782431e-02 -3.431324610824e-03 0.000000000000e+00
  -4.647358297303e-02 -5.650167059114e-02 0.000000000000e+00
  -4.613929815016e-02 -1.070709028907e-01 0.000000000000e+00
  -4.609621032568e-02 -1.466482576282e-01 0.000000000000e+00
  -4.621802565108e-02 -1.685589592907e-01 0.000000000000e+00
  -4.631069231734e-02 -1.700565203251e-01 0.000000000000e+00
  -4.619809491270e-02 -1.531061080140e-01 0.000000000000e+00
  -4.581022117551e-02 -1.233442695286e-01 0.000000000000e+00
  -4.522492968981e-02 -8.763321370514e-02 0.000000000000e+00
  -4.463745385760e-02 -5.136366199141e-02 0.000000000000e+00
  -4.427075609895e-02 -1.679695710365e-02 0.000000000000e+00
  0.000000000000e+00 0.000000000000e+00 0.000000000000e+00
  0.000000000000e+00 0.000000000000e+00 0.000000000000e+00
  -9.099359219698e-02 1.786382744381e-02 0.000000000000e+00
  -9.124741244708e-02 5.425243254553e-02 0.000000000000e+00
  -9.152504228111e-02 9.152504228111e-02 0.000000000000e+00
  -9.147841349282e-02 1.272104132311e-01 0.000000000000e+00
  -9.081106874049e-02 1.560533329777e-01 0.000000000000e+00
  -8.942262137146e-02 1.715761960271e-01 0.000000000000e+00
  -8.745762466667e-02 1.685944915149e-01 0.000000000000e+00
  -8.523828944087e-02 1.454917060180e-01 0.000000000000e+00
  -8.312124243716e-02 1.051759069584e-01 0.000000000000e+00
  -8.135398835927e-02 5.431289500566e-02 0.000000000000e+00
  -7.999547640858e-02 1.281841792593e-03 0.000000000000e+00
  -7.891869705253e-02 -4.615410501771e-02 0.000000000000e+00
  -7.786872613409e-02 -8.250831318687e-02 0.000000000000e+00
  -7.653884036595e-02 -1.051271695679e-01 0.000000000000e+00
  -7.464818728348e-02 -1.138120531679e-01 0.000000000000e+00
  -7.202386075722e-02 -1.099911970838e-01 0.000000000000e+00
  -6.867823239513e-02 -9.586276777119e-02 0.000000000000e+00
  -6.483626338218e-02 -7.369321741121e-02 0.000000000000e+00
  -6.084990731407e-02 -4.530561790585e-02 0.000000000000e+00
  -5.697620189198e-02 -1.181344046111e-02 0.000000000000e+00
  -5.308510513240e-02 2.628175906627e-02 0.000000000000e+00
  -4.844580160671e-02 6.857140373862e-02 0.000000000000e+00
  -4.175000042811e-02 1.139490245104e-01 0.000000000000e+00
  -3.144378558006e-02 1.599026708293e-01 0.000000000000e+00
  -1.629486664381e-02 2.022765120449e-01 0.000000000000e+00
  4.003586254682e-03 2.356978258580e-01 0.000000000000e+00
  2.843238319344e-02 2.545724472278e-01 0.000000000000e+00
  5.462716201155e-02 2.543285746359e-01 0.000000000000e+00
  7.928582136632e-02 2.325309965430e-01 0.000000000000e+00
  9.890019605947e-02 1.895698321580e-01 0.000000000000e+00
  1.106004694630e-01 1.287689166532e-01 0.000000000000e+00
  1.128628192028e-01 5.590787350241e-02 0.000000000000e+00
  1.058732269896e-01 -2.169946939725e-02 0.000000000000e+00
  9.145012581541e-02 -9.629991847250e-02 0.000000000000e+00
  7.257128023152e-02 -1.606608333565e-01 0.000000000000e+00
  5.267596256671e-02 -2.087059816874e-01 0.000000000000e+00
  3.497229151186e-02 -2.358791860564e-01 0.000000000000e+00
  2.194602201745e-02 -2.394833479449e-01 0.000000000000e+00
  1.515823101045e-02 -2.192044381382e-01 0.000000000000e+00
  1.529113578337e-02 -1.777313967678e-01 0.000000000000e+00
  2.231858520441e-02 -1.210371192965e-01 0.000000000000e+00
  3.567550369389e-02 -5.780869820652e-02 0.000000000000e+00
  5.436339299300e-02 2.142803004279e-03 0.000000000000e+00
  7.700549718402e-02 5.007886082818e-02 0.000000000000e+00
  1.019058158952e-01 8.029363581187e-02 0.000000000000e+00
  1.271551256068e-01 9.103835388948e-02 0.000000000000e+00
  1.507863061879e-01 8.411978964585e-02 0.000000000000e+00
  1.709467432128e-01 6.354179619223e-02 0.000000000000e+00
  1.860499846553e-01 3.397358030347e-02 0.000000000000e+00
  1.948889461637e-01 -2.174781231831e-04 0.000000000000e+00
  1.967177180668e-01 -3.507087579452e-02 0.000000000000e+00
  1.913175555831e-01 -6.653913469875e-02 0.000000000000e+00
  1.790488650106e-01 -9.002701096643e-02 0.000000000000e+00
  1.608670507322e-01 -1.005779323618e-01 0.000000000000e+00
  1.382678025589e-01 -9.392691535363e-02 0.000000000000e+00
  1.131428548906e-01 -6.807578438222e-02 0.000000000000e+00
  8.756688924749e-02 -2.462944144732e-02 0.000000000000e+00
  6.357476183496e-02 3.087682153827e-02 0.000000000000e+00
  4.299352262605e-02 8.998320316447e-02 0.000000000000e+00
  2.735244630562e-02 1.433022071933e-01 0.000000000000e+00
  1.782933442169e-02 1.826755456091e-01 0.000000000000e+00
  1.515233942786e-02 2.026544397090e-01 0.000000000000e+00
  1.940459356210e-02 2.009289737813e-01 0.000000000000e+00
  2.976987894121e-02 1.779294013463e-01 0.000000000000e+00
  4.435598136931e-02 1.361528464446e-01 0.000000000000e+00
  6.026570122037e-02 7.966425794862e-02 0.000000000000e+00
  7.401532427938e-02 1.384587357430e-02 0.000000000000e+00
  8.225179963183e-02 -5.484758972491e-02 0.000000000000e+00
  8.256787667999e-02 -1.194121860470e-01 0.000000000000e+00
  7.413870390780e-02 -1.731744468443e-01 0.000000000000e+00
  5.794407783572e-02 -2.108450634465e-01 0.000000000000e+00
  3.648115279681e-02 -2.294247941074e-01 0.000000000000e+00
  1.305355400411e-02 -2.286688416153e-01 0.000000000000e+00
  -9.127661103217e-03 -2.109525303971e-01 0.000000000000e+00
  -2.773392630595e-02 -1.805535962933e-01 0.000000000000e+00
  -4.175078600173e-02 -1.425372639872e-01 0.000000000000e+00
  -5.144235794601e-02 -1.015721161956e-01 0.000000000000e+00
  -5.791908940357e-02 -6.106105906761e-02 0.000000000000e+00
  -6.252454660965e-02 -2.287620223725e-02 0.000000000000e+00
  -6.630433966097e-02 1.226214285230e-02 0.000000000000e+00
  -6.974817109475e-02 4.401242496019e-02 0.000000000000e+00
  -7.284331970097e-02 7.165515172623e-02 0.000000000000e+00
  -7.532812469609e-02 9.369188874715e-02 0.000000000000e+00
  -7.696721907225e-02 1.079011633581e-01 0.000000000000e+00
  -7.771184340182e-02 1.117351350117e-01 0.000000000000e+00
  -7.771390719933e-02 1.028944757187e-01 0.000000000000e+00
  -7.725194939588e-02 8.001469752240e-02 0.000000000000e+00
  -7.664665426083e-02 4.345250136312e-02 0.000000000000e+00
  -7.620155617179e-02 -3.970122325969e-03 0.000000000000e+00
  -7.615571569354e-02 -5.664972820552e-02 0.000000000000e+00
  -7.662726339623e-02 -1.067855823966e-01 0.000000000000e+00
  -7.755958484943e-02 -1.460443444936e-01 0.000000000000e+00
  -7.871384384224e-02 -1.678867981071e-01 0.000000000000e+00
  -7.974296340206e-02 -1.696068952827e-01 0.000000000000e+00
  -8.033319551479e-02 -1.530780983483e-01 0.000000000000e+00
  -8.034794081968e-02 -1.237454076266e-01 0.000000000000e+00
  -7.989563955038e-02 -8.826966836216e-02 0.000000000000e+00
  -7.928035894342e-02 -5.192996377356e-02 0.000000000000e+00
  -7.885610415909e-02 -1.702160786449e-02 0.000000000000e+00
  0.000000000000e+00 0.000000000000e+00 0.000000000000e+00
  0.000000000000e+00 0.000000000000e+00 0.000000000000e+00
  -1.271992294240e-01 1.799140077095e-02 0.000000000000e+00
  -1.273038271773e-01 5.448327722173e-02 0.000000000000e+00
  -1.272104132311e-01 9.147841349282e-02 0.000000000000e+00
  -1.264652113632e-01 1.264652113632e-01 0.000000000000e+00
  -1.246925587595e-01 1.543585374895e-01 0.000000000000e+00
  -1.217899849329e-01 1.689799703197e-01 0.000000000000e+00
  -1.179942995076e-01 1.654300350923e-01 0.000000000000e+00
  -1.137904293579e-01 1.422329570651e-01 0.000000000000e+00
  -1.097155487380e-01 1.022427282877e-01 0.000000000000e+00
  -1.061594411077e-01 5.192271196814e-02 0.000000000000e+00
  -1.032500894708e-01 -5.958387574515e-04 0.000000000000e+00
  -1.008541573174e-01 -4.774913597710e-02 0.000000000000e+00
  -9.866090440078e-02 -8.415650606257e-02 0.000000000000e+00
  -9.629656982678e-02 -1.071731970344e-01 0.000000000000e+00
  -9.343643333709e-02 -1.165168152736e-01 0.000000000000e+00
  -8.990701562696e-02 -1.134401792145e-01 0.000000000000e+00
  -8.576460694631e-02 -9.990182268325e-02 0.000000000000e+00
  -8.130262781737e-02 -7.795811064103e-02 0.000000000000e+00
  -7.692492417248e-02 -4.940478438905e-02 0.000000000000e+00
  -7.286857184168e-02 -1.564433173080e-02 0.000000000000e+00
  -6.886098560830e-02 2.221396734300e-02 0.000000000000e+00
  -6.388785659349e-02 6.302676292139e-02 0.000000000000e+00