# vtk DataFile Version 3.0
Karman Output
ASCII
DATASET RECTILINEAR_GRID
DIMENSIONS 101 101 1
X_COORDINATES 101 float
   0.000000000000e+00   9.900990099010e-03   1.980198019802e-02   2.970297029703e-02   3.960396039604e-02   4.950495049505e-02   5.940594059406e-02   6.930693069307e-02   7.920792079208e-02   8.910891089109e-02   9.900990099010e-02   1.089108910891e-01   1.188118811881e-01   1.287128712871e-01   1.386138613861e-01   1.485148514851e-01   1.584158415842e-01   1.683168316832e-01   1.782178217822e-01   1.881188118812e-01   1.980198019802e-01   2.079207920792e-01   2.178217821782e-01   2.277227722772e-01   2.376237623762e-01   2.475247524752e-01   2.574257425743e-01   2.673267326733e-01   2.772277227723e-01   2.871287128713e-01   2.970297029703e-01   3.069306930693e-01   3.168316831683e-01   3.267326732673e-01   3.366336633663e-01   3.465346534653e-01   3.564356435644e-01   3.663366336634e-01   3.762376237624e-01   3.861386138614e-01   3.960396039604e-01   4.059405940594e-01   4.158415841584e-01   4.257425742574e-01   4.356435643564e-01   4.455445544554e-01   4.554455445545e-01   4.653465346535e-01   4.752475247525e-01   4.851485148515e-01   4.950495049505e-01   5.049504950495e-01   5.148514851485e-01   5.247524752475e-01   5.346534653465e-01   5.445544554455e-01   5.544554455446e-01   5.643564356436e-01   5.742574257426e-01   5.841584158416e-01   5.940594059406e-01   6.039603960396e-01   6.138613861386e-01   6.237623762376e-01   6.336633663366e-01   6.435643564356e-01   6.534653465347e-01   6.633663366337e-01   6.732673267327e-01   6.831683168317e-01   6.930693069307e-01   7.029702970297e-01   7.128712871287e-01   7.227722772277e-01   7.326732673267e-01   7.425742574257e-01   7.524752475248e-01   7.623762376238e-01   7.722772277228e-01   7.821782178218e-01   7.920792079208e-01   8.019801980198e-01   8.118811881188e-01   8.217821782178e-01   8.316831683168e-01   8.415841584158e-01   8.514851485149e-01   8.613861386139e-01   8.712871287129e-01   8.811881188119e-01   8.910891089109e-01   9.009900990099e-01   9.108910891089e-01   9.207920792079e-01   9.306930693069e-01   9.405940594059e-01   9.504950495050e-01   9.603960396040e-01   9.702970297030e-01   9.801980198020e-01   9.900990099010e-01
Y_COORDINATES 101 float
   0.000000000000e+00   9.900990099010e-03   1.980198019802e-02   2.970297029703e-02   3.960396039604e-02   4.950495049505e-02   5.940594059406e-02   6.930693069307e-02   7.920792079208e-02   8.910891089109e-02   9.900990099010e-02   1.089108910891e-01   1.188118811881e-01   1.287128712871e-01   1.386138613861e-01   1.485148514851e-01   1.584158415842e-01   1.683168316832e-01   1.782178217822e-01   1.881188118812e-01   1.980198019802e-01   2.079207920792e-01   2.178217821782e-01   2.277227722772e-01   2.376237623762e-01   2.475247524752e-01   2.574257425743e-01   2.673267326733e-01   2.772277227723e-01   2.871287128713e-01   2.970297029703e-01   3.069306930693e-01   3.168316831683e-01   3.267326732673e-01   3.366336633663e-01   3.465346534653e-01   3.564356435644e-01   3.663366336634e-01   3.762376237624e-01   3.861386138614e-01   3.960396039604e-01   4.059405940594e-01   4.158415841584e-01   4.257425742574e-01   4.356435643564e-01   4.455445544554e-01   4.554455445545e-01   4.653465346535e-01   4.752475247525e-01   4.851485148515e-01   4.950495049505e-01   5.049504950495e-01   5.148514851485e-01   5.247524752475e-01   5.346534653465e-01   5.445544554455e-01   5.544554455446e-01   5.643564356436e-01   5.742574257426e-01   5.841584158416e-01   5.940594059406e-01   6.039603960396e-01   6.138613861386e-01   6.237623762376e-01   6.336633663366e-01   6.435643564356e-01   6.534653465347e-01   6.633663366337e-01   6.732673267327e-01   6.831683168317e-01   6.930693069307e-01   7.029702970297e-01   7.128712871287e-01   7.227722772277e-01   7.326732673267e-01   7.425742574257e-01   7.524752475248e-01   7.623762376238e-01   7.722772277228e-01   7.821782178218e-01   7.920792079208e-01   8.019801980198e-01   8.118811881188e-01   8.217821782178e-01   8.316831683168e-01   8.415841584158e-01   8.514851485149e-01   8.613861386139e-01   8.712871287129e-01   8.811881188119e-01   8.910891089109e-01   9.009900990099e-01   9.108910891089e-01   9.207920792079e-01   9.306930693069e-01   9.405940594059e-01   9.504950495050e-01   9.603960396040e-01   9.702970297030e-01   9.801980198020e-01   9.900990099010e-01
Z_COORDINATES 1 float
  0.000000000000e+00
POINT_DATA 10201
VECTORS E_field float
  0.000000000000e+00 0.000000000000e+00 0.000000000000e+00
  0.000000000000e+00 0.000000000000e+00 0.000000000000e+00
  0.000000000000e+00 0.000000000000e+00 0.000000000000e+00
  0.000000000000e+00 0.000000000000e+00 0.000000000000e+00
  0.000000000000e+00 0.000000000000e+00 0.000000000000e+00
  0.000000000000e+00 0.000000000000e+00 0.000000000000e+00
  0.000000000000e+00 0.000000000000e+00 0.000000000000e+00
  0.000000000000e+00 0.000000000000e+00 0.000000000000e+00
  0.000000000000e+00 0.000000000000e+00 0.000000000000e+00
  0.000000000000e+00 0.000000000000e+00 0.000000000000e+00
  0.000000000000e+00 0.000000000000e+00 0.000000000000e+00
  0.000000000000e+00 0.000000000000e+00 0.000000000000e+00
  0.000000000000e+00 0.000000000000e+00 0.000000000000e+00
  0.000000000000e+00 0.000000000000e+00 0.000000000000e+00
  0.000000000000e+00 0.000000000000e+00 0.000000000000e+00
  0.000000000000e+00 0.000000000000e+00 0.000000000000e+00
  0.000000000000e+00 0.000000000000e+00 0.000000000000e+00
  0.000000000000e+00 0.000000000000e+00 0.000000000000e+00
  0.000000000000e+00 0.000000000000e+00 0.000000000000e+00
  0.000000000000e+00 0.000000000000e+00 0.000000000000e+00
  0.000000000000e+00 0.000000000000e+00 0.000000000000e+00
  0.000000000000e+00 0.000000000000e+00 0.000000000000e+00
  0.000000000000e+00 0.000000000000e+00 0.000000000000e+00
  0.000000000000e+00 0.000000000000e+00 0.000000000000e+00
  0.000000000000e+00 0.000000000000e+00 0.000000000000e+00
  0.000000000000e+00 0.000000000000e+00 0.000000000000e+00
  0.000000000000e+00 0.000000000000e+00 0.000000000000e+00
  0.000000000000e+00 0.000000000000e+00 0.000000000000e+00
  0.000000000000e+00 0.000000000000e+00 0.000000000000e+00
  0.000000000000e+00 0.000000000000e+00 0.000000000000e+00
  0.000000000000e+00 0.000000000000e+00 0.000000000000e+00
  0.000000000000e+00 0.000000000000e+00 0.000000000000e+00
  0.000000000000e+00 0.000000000000e+00 0.000000000000e+00
  0.000000000000e+00 0.000000000000e+00 0.000000000000e+00
  0.000000000000e+00 0.000000000000e+00 0.000000000000e+00
  0.000000000000e+00 0.000000000000e+00 0.000000000000e+00
  0.000000000000e+00 0.000000000000e+00 0.000000000000e+00
  0.000000000000e+00 0.000000000000e+00 0.000000000000e+00
  0.000000000000e+00 0.000000000000e+00 0.000000000000e+00
  0.000000000000e+00 0.000000000000e+00 0.000000000000e+00
  0.000000000000e+00 0.000000000000e+00 0.000000000000e+00
  0.000000000000e+00 0.000000000000e+00 0.000000000000e+00
  0.000000000000e+00 0.000000000000e+00 0.000000000000e+00
  0.000000000000e+00 0.000000000000e+00 0.000000000000e+00
  0.000000000000e+00 0.000000000000e+00 0.000000000000e+00
  0.000000000000e+00 0.000000000000e+00 0.000000000000e+00
  0.000000000000e+00 0.000000000000e+00 0.000000000000e+00
  0.000000000000e+00 0.000000000000e+00 0.000000000000e+00
  0.000000000000e+00 0.000000000000e+00 0.000000000000e+00
  0.000000000000e+00 0.000000000000e+00 0.000000000000e+00
  0.000000000000e+00 0.000000000000e+00 0.000000000000e+00
  0.000000000000e+00 0.000000000000e+00 0.000000000000e+00
  0.000000000000e+00 0.000000000000e+00 0.000000000000e+00
  0.000000000000e+00 0.000000000000e+00 0.000000000000e+00
  0.000000000000e+00 0.000000000000e+00 0.000000000000e+00
  0.000000000000e+00 0.000000000000e+00 0.000000000000e+00
  0.000000000000e+00 0.000000000000e+00 0.000000000000e+00
  0.000000000000e+00 0.000000000000e+00 0.000000000000e+00
  0.000000000000e+00 0.000000000000e+00 0.000000000000e+00
  0.000000000000e+00 0.000000000000e+00 0.000000000000e+00
  0.000000000000e+00 0.000000000000e+00 0.000000000000e+00
  0.000000000000e+00 0.000000000000e+00 0.000000000000e+00
  0.000000000000e+00 0.000000000000e+00 0.000000000000e+00
  0.000000000000e+00 0.000000000000e+00 0.000000000000e+00
  0.000000000000e+00 0.000000000000e+00 0.000000000000e+00
  0.000000000000e+00 0.000000000000e+00 0.000000000000e+00
  0.000000000000e+00 0.000000000000e+00 0.000000000000e+00
  0.000000000000e+00 0.000000000000e+00 0.000000000000e+00
  0.000000000000e+00 0.000000000000e+00 0.000000000000e+00
  0.000000000000e+00 0.000000000000e+00 0.000000000000e+00
  0.000000000000e+00 0.000000000000e+00 0.000000000000e+00
  0.000000000000e+00 0.000000000000e+00 0.000000000000e+00
  0.000000000000e+00 0.000000000000e+00 0.000000000000e+00
  0.000000000000e+00 0.000000000000e+00 0.000000000000e+00
  0.000000000000e+00 0.000000000000e+00 0.000000000000e+00
  0.000000000000e+00 0.000000000000e+00 0.000000000000e+00
  0.000000000000e+00 0.000000000000e+00 0.000000000000e+00
  0.000000000000e+00 0.000000000000e+00 0.000000000000e+00
  0.000000000000e+00 0.000000000000e+00 0.000000000000e+00
  0.000000000000e+00 0.000000000000e+00 0.000000000000e+00
  0.000000000000e+00 0.000000000000e+00 0.000000000000e+00
  0.000000000000e+00 0.000000000000e+00 0.000000000000e+00
  0.000000000000e+00 0.000000000000e+00 0.000000000000e+00
  0.000000000000e+00 0.000000000000e+00 0.000000000000e+00
  0.000000000000e+00 0.000000000000e+00 0.000000000000e+00
  0.000000000000e+00 0.000000000000e+00 0.000000000000e+00
  0.000000000000e+00 0.000000000000e+00 0.000000000000e+00
  0.000000000000e+00 0.000000000000e+00 0.000000000000e+00
  0.000000000000e+00 0.000000000000e+00 0.000000000000e+00
  0.000000000000e+00 0.000000000000e+00 0.000000000000e+00
  0.000000000000e+00 0.000000000000e+00 0.000000000000e+00
  0.000000000000e+00 0.000000000000e+00 0.000000000000e+00
  0.000000000000e+00 0.000000000000e+00 0.000000000000e+00
  0.000000000000e+00 0.000000000000e+00 0.000000000000e+00
  0.000000000000e+00 0.000000000000e+00 0.000000000000e+00
  0.000000000000e+00 0.000000000000e+00 0.000000000000e+00
  0.000000000000e+00 0.000000000000e+00 0.000000000000e+00
  0.000000000000e+00 0.000000000000e+00 0.000000000000e+00
  0.000000000000e+00 0.000000000000e+00 0.000000000000e+00
  0.000000000000e+00 0.000000000000e+00 0.000000000000e+00
  0.000000000000e+00 0.000000000000e+00 0.000000000000e+00
  0.000000000000e+00 0.000000000000e+00 0.000000000000e+00
  8.128891492502e-02 -8.128891492502e-02 0.000000000000e+00
  7.799944739393e-02 -2.373869829449e-01 0.000000000000e+00
  7.190406182112e-02 -3.748573828845e-01 0.000000000000e+00
  6.385321930771e-02 -4.838301371196e-01 0.000000000000e+00
  5.486947134462e-02 -5.577680518942e-01 0.000000000000e+00
  4.593607255425e-02 -5.940062005916e-01 0.000000000000e+00
  3.782985485893e-02 -5.938327062968e-01 0.000000000000e+00
  3.103616536665e-02 -5.622326076147e-01 0.000000000000e+00
  2.574955682814e-02 -5.073393311655e-01 0.000000000000e+00
  2.193395532169e-02 -4.395027777004e-01 0.000000000000e+00
  1.940237882015e-02 -3.698628682479e-01 0.000000000000e+00
  1.788253977939e-02 -3.085176126982e-01 0.000000000000e+00
  1.705460688636e-02 -2.627011649050e-01 0.000000000000e+00
  1.656855374633e-02 -2.355913686452e-01 0.000000000000e+00
  1.605909603373e-02 -2.262438578606e-01 0.000000000000e+00
  1.517194338747e-02 -2.307142962924e-01 0.000000000000e+00
  1.360164428667e-02 -2.439104415970e-01 0.000000000000e+00
  1.112993413478e-02 -2.613980990425e-01 0.000000000000e+00
  7.652378069109e-03 -2.804410449671e-01 0.000000000000e+00
  3.189088085381e-03 -2.999583459239e-01 0.000000000000e+00
  -2.116348868219e-03 -3.196319857138e-01 0.000000000000e+00
  -8.004834485554e-03 -3.388135785884e-01 0.000000000000e+00
  -1.411835335786e-02 -3.559392754426e-01 0.000000000000e+00
  -2.003308828553e-02 -3.688278932775e-01 0.000000000000e+00
  -2.531476583630e-02 -3.756908160671e-01 0.000000000000e+00
  -2.959102545126e-02 -3.762321633316e-01 0.000000000000e+00
  -3.262325971438e-02 -3.721212271972e-01 0.000000000000e+00
  -3.435516617549e-02 -3.664341546435e-01 0.000000000000e+00
  -3.492044777811e-02 -3.622213437095e-01 0.000000000000e+00
  -3.460456584002e-02 -3.608667179301e-01 0.000000000000e+00
  -3.376947743026e-02 -3.610951771977e-01 0.000000000000e+00
  -3.276148378740e-02 -3.592390140944e-01 0.000000000000e+00
  -3.182822892261e-02 -3.507881268556e-01 0.000000000000e+00
  -3.106963315448e-02 -3.325952186046e-01 0.000000000000e+00
  -3.043777013908e-02 -3.047175946359e-01 0.000000000000e+00
  -2.978384781207e-02 -2.709787158346e-01 0.000000000000e+00
  -2.893260742870e-02 -2.379114267638e-01 0.000000000000e+00
  -2.775433397148e-02 -2.125191582307e-01 0.000000000000e+00
  -2.620812528230e-02 -1.998428192956e-01 0.000000000000e+00
  -2.434537279185e-02 -2.013414503343e-01 0.000000000000e+00
  -2.228086691564e-02 -2.146005655897e-01 0.000000000000e+00
  -2.015074957154e-02 -2.342158157462e-01 0.000000000000e+00
  -1.807711403111e-02 -2.532772039975e-01 0.000000000000e+00
  -1.615085822144e-02 -2.648771597097e-01 0.000000000000e+00
  -1.443364354508e-02 -2.633262688011e-01 0.000000000000e+00
  -1.297177958552e-02 -2.449946473141e-01 0.000000000000e+00
  -1.181165314294e-02 -2.087672041865e-01 0.000000000000e+00
  -1.100760392062e-02 -1.560921727390e-01 0.000000000000e+00
  -1.061765969586e-02 -9.064662648180e-02 0.000000000000e+00
  -1.068864833559e-02 -1.773822343378e-02 0.000000000000e+00
  -1.123768659614e-02 5.640209285972e-02 0.000000000000e+00
  -1.223941946948e-02 1.253558158288e-01 0.000000000000e+00
  -1.362614671840e-02 1.832914039928e-01 0.000000000000e+00
  -1.530185833264e-02 2.257750735527e-01 0.000000000000e+00
  -1.716417984954e-02 2.505062278467e-01 0.000000000000e+00
  -1.912401025977e-02 2.577904310496e-01 0.000000000000e+00
  -2.111362039692e-02 2.506093169563e-01 0.000000000000e+00
  -2.307997364564e-02 2.342536650589e-01 0.000000000000e+00
  -2.496829823619e-02 2.155338044369e-01 0.000000000000e+00
  -2.670732580278e-02 2.015705495037e-01 0.000000000000e+00
  -2.820826822506e-02 1.982402811395e-01 0.000000000000e+00
  -2.938303996018e-02 2.085897475114e-01 0.000000000000e+00
  -3.017591877811e-02 2.318109384520e-01 0.000000000000e+00
  -3.059288432960e-02 2.633799947443e-01 0.000000000000e+00
  -3.071079708700e-02 2.965526235192e-01 0.000000000000e+00
  -3.065670391064e-02 3.247427236813e-01 0.000000000000e+00
  -3.056174629283e-02 3.438017326715e-01 0.000000000000e+00
  -3.050636592319e-02 3.532054192917e-01 0.000000000000e+00
  -3.047744690847e-02 3.556689376481e-01 0.000000000000e+00
  -3.035306037422e-02 3.554613538624e-01 0.000000000000e+00
  -2.992065605156e-02 3.562763628161e-01 0.000000000000e+00
  -2.892450589578e-02 3.596549365817e-01 0.000000000000e+00
  -2.713024345185e-02 3.646127736322e-01 0.000000000000e+00
  -2.438916937850e-02 3.684990122647e-01 0.000000000000e+00
  -2.068400319199e-02 3.685213285518e-01 0.000000000000e+00
  -1.614302348662e-02 3.631020394865e-01 0.000000000000e+00
  -1.102076330867e-02 3.524015938019e-01 0.000000000000e+00
  -5.655554955175e-03 3.378575716034e-01 0.000000000000e+00
  -4.197325902087e-04 3.211570529689e-01 0.000000000000e+00
  4.326426771207e-03 3.033682464940e-01 0.000000000000e+00
  8.276227831132e-03 2.848258056752e-01 0.000000000000e+00
  1.121857593460e-02 2.658706473391e-01 0.000000000000e+00
  1.308051084670e-02 2.479835290717e-01 0.000000000000e+00
  1.395850931889e-02 2.345548464628e-01 0.000000000000e+00
  1.412020847020e-02 2.306710850056e-01 0.000000000000e+00
  1.396591473912e-02 2.417889784461e-01 0.000000000000e+00
  1.395851011999e-02 2.717435654741e-01 0.000000000000e+00
  1.454750534660e-02 3.208980419374e-01 0.000000000000e+00
  1.611437727585e-02 3.852122720547e-01 0.000000000000e+00
  1.894968095413e-02 4.566046831372e-01 0.000000000000e+00
  2.324909450750e-02 5.244243666679e-01 0.000000000000e+00
  2.910220172481e-02 5.774371017282e-01 0.000000000000e+00
  3.645450193079e-02 6.056675068130e-01 0.000000000000e+00
  4.504658824896e-02 6.017037669333e-01 0.000000000000e+00
  5.436038867064e-02 5.614288843380e-01 0.000000000000e+00
  6.361442051625e-02 4.843441225947e-01 0.000000000000e+00
  7.183918237204e-02 3.736218535225e-01 0.000000000000e+00
  7.803349196250e-02 2.358872410428e-01 0.000000000000e+00
  8.136663542257e-02 8.064958451346e-02 0.000000000000e+00
  0.000000000000e+00 0.000000000000e+00 0.000000000000e+00
  0.000000000000e+00 0.000000000000e+00 0.000000000000e+00
  2.373869829449e-01 -7.799944739393e-02 0.000000000000e+00
  2.280097954918e-01 -2.280097954918e-01 0.000000000000e+00
  2.106154675150e-01 -3.607448567881e-01 0.000000000000e+00
  1.875965382215e-01 -4.668728914090e-01 0.000000000000e+00
  1.618314392841e-01 -5.399764507043e-01 0.000000000000e+00
  1.360923711342e-01 -5.771253348412e-01 0.000000000000e+00
  1.125782332695e-01 -5.790932164871e-01 0.000000000000e+00
  9.267755472721e-02 -5.502777293899e-01 0.000000000000e+00
  7.697012899979e-02 -4.983001751245e-01 0.000000000000e+00
  6.539254412675e-02 -4.331487473619e-01 0.000000000000e+00
  5.745600895831e-02 -3.657487869164e-01 0.000000000000e+00
  5.242403566159e-02 -3.060798816922e-01 0.000000000000e+00
  4.941412072531e-02 -2.613010480817e-01 0.000000000000e+00
  4.744608035947e-02 -2.345373919627e-01 0.000000000000e+00
  4.548749006332e-02 -2.248297865344e-01 0.000000000000e+00
  4.253285926142e-02 -2.282865841705e-01 0.000000000000e+00
  3.771470802272e-02 -2.399497033794e-01 0.000000000000e+00
  3.041352088972e-02 -2.555859399752e-01 0.000000000000e+00
  2.033203203480e-02 -2.726941591138e-01 0.000000000000e+00
  7.523242288913e-03 -2.904331520476e-01 0.000000000000e+00
  -7.614366205641e-03 -3.087141341420e-01 0.000000000000e+00
  -2.435932614873e-02 -3.270979845998e-01 0.000000000000e+00
  -4.171212456524e-02 -3.441885521424e-01 0.000000000000e+00
  -5.848574817968e-02 -3.578902580355e-01 0.000000000000e+00
  -7.345940006228e-02 -3.663731218756e-01 0.000000000000e+00
  -8.558196360182e-02 -3.691510343686e-01 0.000000000000e+00
  -9.417610605351e-02 -3.675759794455e-01 0.000000000000e+00
  -9.907811906066e-02 -3.643454829270e-01 0.000000000000e+00
  -1.006625001415e-01 -3.621603527425e-01 0.000000000000e+00
  -9.973551602141e-02 -3.621705749552e-01 0.000000000000e+00
  -9.732243556263e-02 -3.630394890410e-01 0.000000000000e+00
  -9.440581247535e-02 -3.612193189810e-01 0.000000000000e+00
  -9.168947661961e-02 -3.524574126891e-01 0.000000000000e+00
  -8.945908725076e-02 -3.339149179072e-01 0.000000000000e+00
  -8.758171448015e-02 -3.059071311177e-01 0.000000000000e+00
  -8.563873711752e-02 -2.723860790395e-01 0.000000000000e+00
  -8.313596012341e-02 -2.398580809313e-01 0.000000000000e+00
  -7.970671473977e-02 -2.151800228957e-01 0.000000000000e+00
  -7.523379449776e-02 -2.032010835488e-01 0.000000000000e+00
  -6.985923427633e-02 -2.052204987736e-01 0.000000000000e+00
  -6.390282704959e-02 -2.187424302257e-01 0.000000000000e+00
  -5.774366109431e-02 -2.383632343723e-01 0.000000000000e+00
  -5.172101817985e-02 -2.572260637784e-01 0.000000000000e+00
  -4.608814855164e-02 -2.684874253083e-01 0.000000000000e+00
  -4.102157707707e-02 -2.664997892863e-01 0.000000000000e+00
  -3.666449300646e-02 -2.476400747866e-01 0.000000000000e+00
  -3.317227045646e-02 -2.107741256336e-01 0.000000000000e+00
  -3.073171387386e-02 -1.573298570293e-01 0.000000000000e+00
  -2.954044378422e-02 -9.099015645014e-02 0.000000000000e+00
  -2.975347048685e-02 -1.711067808477e-02 0.000000000000e+00
  -3.142195663602e-02 5.799207193707e-02 0.000000000000e+00
  -3.445538209731e-02 1.278009950792e-01 0.000000000000e+00
  -3.862844361652e-02 1.864060134809e-01 0.000000000000e+00
  -4.363228514267e-02 2.293400171559e-01 0.000000000000e+00
  -4.914738243409e-02 2.543187029884e-01 0.000000000000e+00
  -5.490455768033e-02 2.616949614929e-01 0.000000000000e+00
  -6.070695790719e-02 2.544967968037e-01 0.000000000000e+00
  -6.640628940945e-02 2.380318698927e-01 0.000000000000e+00
  -7.185131896902e-02 2.190889536910e-01 0.000000000000e+00
  -7.684359188242e-02 2.047467006773e-01 0.000000000000e+00
  -8.113492744521e-02 2.008564079093e-01 0.000000000000e+00
  -8.448094720186e-02 2.104944122018e-01 0.000000000000e+00
  -8.673243346363e-02 2.329506388187e-01 0.000000000000e+00
  -8.791868299352e-02 2.638435094435e-01 0.000000000000e+00
  -8.827191885290e-02 2.965602574267e-01 0.000000000000e+00
  -8.816543088820e-02 3.245745086266e-01 0.000000000000e+00
  -8.797883729400e-02 3.436883965106e-01 0.000000000000e+00
  -8.793910619464e-02 3.532236439816e-01 0.000000000000e+00
  -8.799762216472e-02 3.556803099125e-01 0.000000000000e+00
  -8.778915788155e-02 3.551171307800e-01 0.000000000000e+00
  -8.668930986405e-02 3.550883335580e-01 0.000000000000e+00
  -8.395646920967e-02 3.571139750295e-01 0.000000000000e+00
  -7.892052608574e-02 3.603235296165e-01 0.000000000000e+00
  -7.116630882041e-02 3.622929649417e-01 0.000000000000e+00
  -6.065908160667e-02 3.605149824745e-01 0.000000000000e+00
  -4.777688770584e-02 3.536852119575e-01 0.000000000000e+00
  -3.324785190109e-02 3.421671253481e-01 0.000000000000e+00
  -1.802476291173e-02 3.275037427143e-01 0.000000000000e+00
  -3.143456344370e-03 3.113937529257e-01 0.000000000000e+00
  1.040365360625e-02 2.948382772252e-01 0.000000000000e+00
  2.177810717748e-02 2.780315203128e-01 0.000000000000e+00
  3.040652865150e-02 2.610941631239e-01 0.000000000000e+00
  3.609486449606e-02 2.452097425302e-01 0.000000000000e+00
  3.911435718570e-02 2.334311418425e-01 0.000000000000e+00
  4.020789959459e-02 2.305395480657e-01 0.000000000000e+00
  4.048560532134e-02 2.417971033903e-01 0.000000000000e+00
  4.123168175564e-02 2.709967687147e-01 0.000000000000e+00
  4.369312608822e-02 3.185943991375e-01 0.000000000000e+00
  4.892590773929e-02 3.807162612742e-01 0.000000000000e+00
  5.772899986693e-02 4.494622981118e-01 0.000000000000e+00
  7.063187378022e-02 5.143644642267e-01 0.000000000000e+00
  8.786324059086e-02 5.644125301415e-01 0.000000000000e+00
  1.092464595423e-01 5.899565592424e-01 0.000000000000e+00
  1.340317384297e-01 5.840373492984e-01 0.000000000000e+00
  1.607476813039e-01 5.430655586770e-01 0.000000000000e+00
  1.871890011544e-01 4.670120965595e-01 0.000000000000e+00
  2.106276667376e-01 3.592904521187e-01 0.000000000000e+00
  2.282503304680e-01 2.264016691257e-01 0.000000000000e+00
  2.377241769046e-01 7.732816653388e-02 0.000000000000e+00
  0.000000000000e+00 0.000000000000e+00 0.000000000000e+00
  0.000000000000e+00 0.000000000000e+00 0.000000000000e+00
  3.748573828845e-01 -7.190406182112e-02 0.000000000000e+00
  3.607448567881e-01 -2.106154675150e-01 0.000000000000e+00
  3.345074063292e-01 -3.345074063292e-01 0.000000000000e+00
  2.996436935338e-01 -4.352276997789e-01 0.000000000000e+00
  2.603696702826e-01 -5.065825201459e-01 0.000000000000e+00
  2.207613152975e-01 -5.451718422647e-01 0.000000000000e+00
  1.840811916747e-01 -5.508524475761e-01 0.000000000000e+00
  1.524378541059e-01 -5.269744821897e-01 0.000000000000e+00
  1.267859459854e-01 -4.802440884767e-01 0.000000000000e+00
  1.071553723038e-01 -4.199966754551e-01 0.000000000000e+00
  9.294911950640e-02 -3.567580708574e-01 0.000000000000e+00
  8.318185825688e-02 -3.002713632049e-01 0.000000000000e+00
  7.661533982069e-02 -2.575331331964e-01 0.000000000000e+00
  7.182879383097e-02 -2.315507204923e-01 0.000000000000e+00
  6.729701829418e-02 -2.213260921718e-01 0.000000000000e+00
  6.152317259459e-02 -2.230618020316e-01 0.000000000000e+00
  5.321528057553e-02 -2.320484422605e-01 0.000000000000e+00
  4.145252429884e-02 -2.444232576843e-01 0.000000000000e+00
  2.579046924586e-02 -2.581132974968e-01 0.000000000000e+00
  6.294164192659e-03 -2.727089188656e-01 0.000000000000e+00
  -1.647492303629e-02 -2.885316716005e-01 0.000000000000e+00
  -4.149152589308e-02 -3.055188843414e-01 0.000000000000e+00
  -6.732516248929e-02 -3.225812173881e-01 0.000000000000e+00
  -9.226213530674e-02 -3.377869963580e-01 0.000000000000e+00
  -1.145223046439e-01 -3.492425623334e-01 0.000000000000e+00
  -1.325557001647e-01 -3.561256348504e-01 0.000000000000e+00
  -1.453482430610e-01 -3.592146936156e-01 0.000000000000e+00
  -1.526383645815e-01 -3.605146342291e-01 0.000000000000e+00
  -1.549639459369e-01 -3.620812390041e-01 0.000000000000e+00
  -1.535112132856e-01 -3.646294054647e-01 0.000000000000e+00
  -1.498001057572e-01 -3.667048465180e-01 0.000000000000e+00
  -1.452929014112e-01 -3.649777889360e-01 0.000000000000e+00
  -1.410404958724e-01 -3.556676841257e-01 0.000000000000e+00
  -1.374740886855e-01 -3.365014430207e-01 0.000000000000e+00
  -1.344051881066e-01 -3.082668793431e-01 0.000000000000e+00
  -1.312233764797e-01 -2.751511197847e-01 0.000000000000e+00
  -1.272067710961e-01 -2.436124225314e-01 0.000000000000e+00
  -1.218201902073e-01 -2.202415075153e-01 0.000000000000e+00
  -1.148925074835e-01 -2.095402018133e-01 0.000000000000e+00
  -1.066287189891e-01 -2.125197291041e-01 0.000000000000e+00
  -9.748834941746e-02 -2.265399765235e-01 0.000000000000e+00
  -8.801104429434e-02 -2.462021589250e-01 0.000000000000e+00
  -7.867399733756e-02 -2.647468288064e-01 0.000000000000e+00
  -6.983251311276e-02 -2.754410137819e-01 0.000000000000e+00
  -6.174754573698e-02 -2.726977392610e-01 0.000000000000e+00
  -5.466412369877e-02 -2.528826304880e-01 0.000000000000e+00
  -4.888492998435e-02 -2.148029857620e-01 0.000000000000e+00
  -4.478880476877e-02 -1.598376782975e-01 0.000000000000e+00
  -4.277263019781e-02 -9.168977951090e-02 0.000000000000e+00
  -4.313611484437e-02 -1.583454344647e-02 0.000000000000e+00
  -4.596300135089e-02 6.121131005527e-02 0.000000000000e+00
  -5.105961304372e-02 1.327117940774e-01 0.000000000000e+00
  -5.798580823689e-02 1.925944710230e-01 0.000000000000e+00
  -6.616736682711e-02 2.363369594422e-01 0.000000000000e+00
  -7.503835364480e-02 2.617078444371e-01 0.000000000000e+00
  -8.414927603281e-02 2.691739172542e-01 0.000000000000e+00
  -9.319727656906e-02 2.618682413677e-01 0.000000000000e+00
  -1.019757161086e-01 2.451381959512e-01 0.000000000000e+00
  -1.102813295299e-01 2.257332702368e-01 0.000000000000e+00
  -1.178390235512e-01 2.106523507470e-01 0.000000000000e+00
  -1.242972238497e-01 2.057002934445e-01 0.000000000000e+00
  -1.293115035218e-01 2.140108258998e-01 0.000000000000e+00
  -1.326847218264e-01 2.350589295451e-01 0.000000000000e+00
  -1.344922335231e-01 2.647289798455e-01 0.000000000000e+00
  -1.351150348725e-01 2.966508241688e-01 0.000000000000e+00
  -1.351401789885e-01 3.244025979950e-01 0.000000000000e+00
  -1.351497601824e-01 3.436832947175e-01 0.000000000000e+00
  -1.354742754310e-01 3.535135299100e-01 0.000000000000e+00
  -1.360053528131e-01 3.559800173287e-01 0.000000000000e+00
  -1.361408251852e-01 3.547444314488e-01 0.000000000000e+00
  -1.348872881966e-01 3.531076478813e-01 0.000000000000e+00
  -1.310936005713e-01 3.525681324256e-01 0.000000000000e+00
  -1.237489138377e-01 3.524887423625e-01 0.000000000000e+00
  -1.122587843224e-01 3.508834054149e-01 0.000000000000e+00
  -9.661839709707e-02 3.457769275622e-01 0.000000000000e+00
  -7.743602636079e-02 3.363587022327e-01 0.000000000000e+00
  -5.581448626568e-02 3.233430591731e-01 0.000000000000e+00
  -3.314885459573e-02 3.084390882300e-01 0.000000000000e+00
  -1.091520654643e-02 2.933434527933e-01 0.000000000000e+00
  9.503460992882e-03 2.789227998676e-01 0.000000000000e+00
  2.695815331693e-02 2.651178517751e-01 0.000000000000e+00
  4.067393807801e-02 2.516636254266e-01 0.000000000000e+00
  5.040071939835e-02 2.392251630626e-01 0.000000000000e+00
  5.653373912091e-02 2.302632088978e-01 0.000000000000e+00
  6.012884285922e-02 2.290188348631e-01 0.000000000000e+00
  6.276239958768e-02 2.404065541376e-01 0.000000000000e+00
  6.626117605813e-02 2.681424650626e-01 0.000000000000e+00
  7.239940295154e-02 3.128490315637e-01 0.000000000000e+00
  8.267198268056e-02 3.709562674680e-01 0.000000000000e+00
  9.819146224174e-02 4.348997202292e-01 0.000000000000e+00
  1.196644552521e-01 4.945511751856e-01 0.000000000000e+00
  1.473468796738e-01 5.393120279502e-01 0.000000000000e+00
  1.808992296264e-01 5.601214925296e-01 0.000000000000e+00
  2.191534195454e-01 5.508329472047e-01 0.000000000000e+00
  2.599065249348e-01 5.088009125072e-01 0.000000000000e+00
  2.999077765363e-01 4.348341712772e-01 0.000000000000e+00
  3.351649141038e-01 3.327725742502e-01 0.000000000000e+00
  3.615756459819e-01 2.088861513857e-01 0.000000000000e+00
  3.757445073619e-01 7.120097645733e-02 0.000000000000e+00
  0.000000000000e+00 0.000000000000e+00 0.000000000000e+00
  0.000000000000e+00 0.000000000000e+00 0.000000000000e+00
  4.838301371196e-01 -6.385321930771e-02 0.000000000000e+00
  4.668728914090e-01 -1.875965382215e-01 0.000000000000e+00
  4.352276997789e-01 -2.996436935338e-01 0.000000000000e+00
  3.928950309941e-01 -3.928950309941e-01 0.000000000000e+00
  3.447124354646e-01 -4.614585701500e-01 0.000000000000e+00
  2.953928628045e-01 -5.013678646155e-01 0.000000000000e+00
  2.487727485476e-01 -5.113561873456e-01 0.000000000000e+00
  2.074315568866e-01 -4.934862131904e-01 0.000000000000e+00
  1.726833960867e-01 -4.533322885556e-01 0.000000000000e+00
  1.448105537797e-01 -3.994050593876e-01 0.000000000000e+00
  1.233623760009e-01 -3.416952563486e-01 0.000000000000e+00
  1.073879819150e-01 -2.895925223784e-01 0.000000000000e+00
  9.556826051133e-02 -2.498257341831e-01 0.000000000000e+00
  8.629931127345e-02 -2.252026242781e-01 0.000000000000e+00
  7.780691696886e-02 -2.146500185447e-01 0.000000000000e+00
  6.833215582360e-02 -2.144892688139e-01 0.000000000000e+00
  5.635921924450e-02 -2.203401468801e-01 0.000000000000e+00
  4.081323604846e-02 -2.288228135920e-01 0.000000000000e+00
  2.117014488481e-02 -2.384085953725e-01 0.000000000000e+00
  -2.524113537139e-03 -2.492230575147e-01 0.000000000000e+00
  -2.968169935998e-02 -2.620908598996e-01 0.000000000000e+00