# vtk DataFile Version 3.0
Karman Output
ASCII
DATASET RECTILINEAR_GRID
DIMENSIONS 101 101 1
X_COORDINATES 101 float
   0.000000000000e+00   9.900990099010e-03   1.980198019802e-02   2.970297029703e-02   3.960396039604e-02   4.950495049505e-02   5.940594059406e-02   6.930693069307e-02   7.920792079208e-02   8.910891089109e-02   9.900990099010e-02   1.089108910891e-01   1.188118811881e-01   1.287128712871e-01   1.386138613861e-01   1.485148514851e-01   1.584158415842e-01   1.683168316832e-01   1.782178217822e-01   1.881188118812e-01   1.980198019802e-01   2.079207920792e-01   2.178217821782e-01   2.277227722772e-01   2.376237623762e-01   2.475247524752e-01   2.574257425743e-01   2.673267326733e-01   2.772277227723e-01   2.871287128713e-01   2.970297029703e-01   3.069306930693e-01   3.168316831683e-01   3.267326732673e-01   3.366336633663e-01   3.465346534653e-01   3.564356435644e-01   3.663366336634e-01   3.762376237624e-01   3.861386138614e-01   3.960396039604e-01   4.059405940594e-01   4.158415841584e-01   4.257425742574e-01   4.356435643564e-01   4.455445544554e-01   4.554455445545e-01   4.653465346535e-01   4.752475247525e-01   4.851485148515e-01   4.950495049505e-01   5.049504950495e-01   5.148514851485e-01   5.247524752475e-01   5.346534653465e-01   5.445544554455e-01   5.544554455446e-01   5.643564356436e-01   5.742574257426e-01   5.841584158416e-01   5.940594059406e-01   6.039603960396e-01   6.138613861386e-01   6.237623762376e-01   6.336633663366e-01   6.435643564356e-01   6.534653465347e-01   6.633663366337e-01   6.732673267327e-01   6.831683168317e-01   6.930693069307e-01   7.029702970297e-01   7.128712871287e-01   7.227722772277e-01   7.326732673267e-01   7.425742574257e-01   7.524752475248e-01   7.623762376238e-01   7.722772277228e-01   7.821782178218e-01   7.920792079208e-01   8.019801980198e-01   8.118811881188e-01   8.217821782178e-01   8.316831683168e-01   8.415841584158e-01   8.514851485149e-01   8.613861386139e-01   8.712871287129e-01   8.811881188119e-01   8.910891089109e-01   9.009900990099e-01   9.108910891089e-01   9.207920792079e-01   9.306930693069e-01   9.405940594059e-01   9.504950495050e-01   9.603960396040e-01   9.702970297030e-01   9.801980198020e-01   9.900990099010e-01
Y_COORDINATES 101 float
   0.000000000000e+00   9.900990099010e-03   1.980198019802e-02   2.970297029703e-02   3.960396039604e-02   4.950495049505e-02   5.940594059406e-02   6.930693069307e-02   7.920792079208e-02   8.910891089109e-02   9.900990099010e-02   1.089108910891e-01   1.188118811881e-01   1.287128712871e-01   1.386138613861e-01   1.485148514851e-01   1.584158415842e-01   1.683168316832e-01   1.782178217822e-01   1.881188118812e-01   1.980198019802e-01   2.079207920792e-01   2.178217821782e-01   2.277227722772e-01   2.376237623762e-01   2.475247524752e-01   2.574257425743e-01   2.673267326733e-01   2.772277227723e-01   2.871287128713e-01   2.970297029703e-01   3.069306930693e-01   3.168316831683e-01   3.267326732673e-01   3.366336633663e-01   3.465346534653e-01   3.564356435644e-01   3.663366336634e-01   3.762376237624e-01   3.861386138614e-01   3.960396039604e-01   4.059405940594e-01   4.158415841584e-01   4.257425742574e-01   4.356435643564e-01   4.455445544554e-01   4.554455445545e-01   4.653465346535e-01   4.752475247525e-01   4.851485148515e-01   4.950495049505e-01   5.049504950495e-01   5.148514851485e-01   5.247524752475e-01   5.346534653465e-01   5.445544554455e-01   5.544554455446e-01   5.643564356436e-01   5.742574257426e-01   5.841584158416e-01   5.940594059406e-01   6.039603960396e-01   6.138613861386e-01   6.237623762376e-01   6.336633663366e-01   6.435643564356e-01   6.534653465347e-01   6.633663366337e-01   6.732673267327e-01   6.831683168317e-01   6.930693069307e-01   7.029702970297e-01   7.128712871287e-01   7.227722772277e-01   7.326732673267e-01   7.425742574257e-01   7.524752475248e-01   7.623762376238e-01   7.722772277228e-01   7.821782178218e-01   7.920792079208e-01   8.019801980198e-01   8.118811881188e-01   8.217821782178e-01   8.316831683168e-01   8.415841584158e-01   8.514851485149e-01   8.613861386139e-01   8.712871287129e-01   8.811881188119e-01   8.910891089109e-01   9.009900990099e-01   9.108910891089e-01   9.207920792079e-01   9.306930693069e-01   9.405940594059e-01   9.504950495050e-01   9.603960396040e-01   9.702970297030e-01   9.801980198020e-01   9.900990099010e-01
Z_COORDINATES 1 float
  0.000000000000e+00
POINT_DATA 10201
VECTORS E_field float
  0.000000000000e+00 0.000000000000e+00 0.000000000000e+00
  0.000000000000e+00 0.000000000000e+00 0.000000000000e+00
  0.000000000000e+00 0.000000000000e+00 0.000000000000e+00
  0.000000000000e+00 0.000000000000e+00 0.000000000000e+00
  0.000000000000e+00 0.000000000000e+00 0.000000000000e+00
  0.000000000000e+00 0.000000000000e+00 0.000000000000e+00
  0.000000000000e+00 0.000000000000e+00 0.000000000000e+00
  0.000000000000e+00 0.000000000000e+00 0.000000000000e+00
  0.000000000000e+00 0.000000000000e+00 0.000000000000e+00
  0.000000000000e+00 0.000000000000e+00 0.000000000000e+00
  0.000000000000e+00 0.000000000000e+00 0.000000000000e+00
  0.000000000000e+00 0.000000000000e+00 0.000000000000e+00
  0.000000000000e+00 0.000000000000e+00 0.000000000000e+00
  0.000000000000e+00 0.000000000000e+00 0.000000000000e+00
  0.000000000000e+00 0.000000000000e+00 0.000000000000e+00
  0.000000000000e+00 0.000000000000e+00 0.000000000000e+00
  0.000000000000e+00 0.000000000000e+00 0.000000000000e+00
  0.000000000000e+00 0.000000000000e+00 0.000000000000e+00
  0.000000000000e+00 0.000000000000e+00 0.000000000000e+00
  0.000000000000e+00 0.000000000000e+00 0.000000000000e+00
  0.000000000000e+00 0.000000000000e+00 0.000000000000e+00
  0.000000000000e+00 0.000000000000e+00 0.000000000000e+00
  0.000000000000e+00 0.000000000000e+00 0.000000000000e+00
  0.000000000000e+00 0.000000000000e+00 0.000000000000e+00
  0.000000000000e+00 0.000000000000e+00 0.000000000000e+00
  0.000000000000e+00 0.000000000000e+00 0.000000000000e+00
  0.000000000000e+00 0.000000000000e+00 0.000000000000e+00
  0.000000000000e+00 0.000000000000e+00 0.000000000000e+00
  0.000000000000e+00 0.000000000000e+00 0.000000000000e+00
  0.000000000000e+00 0.000000000000e+00 0.000000000000e+00
  0.000000000000e+00 0.000000000000e+00 0.000000000000e+00
  0.000000000000e+00 0.000000000000e+00 0.000000000000e+00
  0.000000000000e+00 0.000000000000e+00 0.000000000000e+00
  0.000000000000e+00 0.000000000000e+00 0.000000000000e+00
  0.000000000000e+00 0.000000000000e+00 0.000000000000e+00
  0.000000000000e+00 0.000000000000e+00 0.000000000000e+00
  0.000000000000e+00 0.000000000000e+00 0.000000000000e+00
  0.000000000000e+00 0.000000000000e+00 0.000000000000e+00
  0.000000000000e+00 0.000000000000e+00 0.000000000000e+00
  0.000000000000e+00 0.000000000000e+00 0.000000000000e+00
  0.000000000000e+00 0.000000000000e+00 0.000000000000e+00
  0.000000000000e+00 0.000000000000e+00 0.000000000000e+00
  0.000000000000e+00 0.000000000000e+00 0.000000000000e+00
  0.000000000000e+00 0.000000000000e+00 0.000000000000e+00
  0.000000000000e+00 0.000000000000e+00 0.000000000000e+00
  0.000000000000e+00 0.000000000000e+00 0.000000000000e+00
  0.000000000000e+00 0.000000000000e+00 0.000000000000e+00
  0.000000000000e+00 0.000000000000e+00 0.000000000000e+00
  0.000000000000e+00 0.000000000000e+00 0.000000000000e+00
  0.000000000000e+00 0.000000000000e+00 0.000000000000e+00
  0.000000000000e+00 0.000000000000e+00 0.000000000000e+00
  0.000000000000e+00 0.000000000000e+00 0.000000000000e+00
  0.000000000000e+00 0.000000000000e+00 0.000000000000e+00
  0.000000000000e+00 0.000000000000e+00 0.000000000000e+00
  0.000000000000e+00 0.000000000000e+00 0.000000000000e+00
  0.000000000000e+00 0.000000000000e+00 0.000000000000e+00
  0.000000000000e+00 0.000000000000e+00 0.000000000000e+00
  0.000000000000e+00 0.000000000000e+00 0.000000000000e+00
  0.000000000000e+00 0.000000000000e+00 0.000000000000e+00
  0.000000000000e+00 0.000000000000e+00 0.000000000000e+00
  0.000000000000e+00 0.000000000000e+00 0.000000000000e+00
  0.000000000000e+00 0.000000000000e+00 0.000000000000e+00
  0.000000000000e+00 0.000000000000e+00 0.000000000000e+00
  0.000000000000e+00 0.000000000000e+00 0.000000000000e+00
  0.000000000000e+00 0.000000000000e+00 0.000000000000e+00
  0.000000000000e+00 0.000000000000e+00 0.000000000000e+00
  0.000000000000e+00 0.000000000000e+00 0.000000000000e+00
  0.000000000000e+00 0.000000000000e+00 0.000000000000e+00
  0.000000000000e+00 0.000000000000e+00 0.000000000000e+00
  0.000000000000e+00 0.000000000000e+00 0.000000000000e+00
  0.000000000000e+00 0.000000000000e+00 0.000000000000e+00
  0.000000000000e+00 0.000000000000e+00 0.000000000000e+00
  0.000000000000e+00 0.000000000000e+00 0.000000000000e+00
  0.000000000000e+00 0.000000000000e+00 0.000000000000e+00
  0.000000000000e+00 0.000000000000e+00 0.000000000000e+00
  0.000000000000e+00 0.000000000000e+00 0.000000000000e+00
  0.000000000000e+00 0.000000000000e+00 0.000000000000e+00
  0.000000000000e+00 0.000000000000e+00 0.000000000000e+00
  0.000000000000e+00 0.000000000000e+00 0.000000000000e+00
  0.000000000000e+00 0.000000000000e+00 0.000000000000e+00
  0.000000000000e+00 0.000000000000e+00 0.000000000000e+00
  0.000000000000e+00 0.000000000000e+00 0.000000000000e+00
  0.000000000000e+00 0.000000000000e+00 0.000000000000e+00
  0.000000000000e+00 0.000000000000e+00 0.000000000000e+00
  0.000000000000e+00 0.000000000000e+00 0.000000000000e+00
  0.000000000000e+00 0.000000000000e+00 0.000000000000e+00
  0.000000000000e+00 0.000000000000e+00 0.000000000000e+00
  0.000000000000e+00 0.000000000000e+00 0.000000000000e+00
  0.000000000000e+00 0.000000000000e+00 0.000000000000e+00
  0.000000000000e+00 0.000000000000e+00 0.000000000000e+00
  0.000000000000e+00 0.000000000000e+00 0.000000000000e+00
  0.000000000000e+00 0.000000000000e+00 0.000000000000e+00
  0.000000000000e+00 0.000000000000e+00 0.000000000000e+00
  0.000000000000e+00 0.000000000000e+00 0.000000000000e+00
  0.000000000000e+00 0.000000000000e+00 0.000000000000e+00
  0.000000000000e+00 0.000000000000e+00 0.000000000000e+00
  0.000000000000e+00 0.000000000000e+00 0.000000000000e+00
  0.000000000000e+00 0.000000000000e+00 0.000000000000e+00
  0.000000000000e+00 0.000000000000e+00 0.000000000000e+00
  0.000000000000e+00 0.000000000000e+00 0.000000000000e+00
  0.000000000000e+00 0.000000000000e+00 0.000000000000e+00
  0.000000000000e+00 0.000000000000e+00 0.000000000000e+00
  1.185423638576e-02 -1.185423638576e-02 0.000000000000e+00
  1.164550835431e-02 -3.702091184142e-02 0.000000000000e+00
  1.122415085368e-02 -6.514656698768e-02 0.000000000000e+00
  1.059395418184e-02 -9.413381362851e-02 0.000000000000e+00
  9.787175095655e-03 -1.177881487891e-01 0.000000000000e+00
  8.887778836400e-03 -1.273434926327e-01 0.000000000000e+00
  8.045759502829e-03 -1.144879146651e-01 0.000000000000e+00
  7.470485352523e-03 -7.468530047826e-02 0.000000000000e+00
  7.397342704200e-03 -9.416764044224e-03 0.000000000000e+00
  8.033173018889e-03 7.357887172242e-02 0.000000000000e+00
  9.495833272811e-03 1.621049937821e-01 0.000000000000e+00
  1.176616567793e-02 2.425420428598e-01 0.000000000000e+00
  1.466639758428e-02 3.029543686594e-01 0.000000000000e+00
  1.787185233884e-02 3.353632092861e-01 0.000000000000e+00
  2.095705570470e-02 3.368651363278e-01 0.000000000000e+00
  2.347269056588e-02 3.097333887863e-01 0.000000000000e+00
  2.504268386524e-02 2.607254229333e-01 0.000000000000e+00
  2.545939227748e-02 1.996730973117e-01 0.000000000000e+00
  2.474462438690e-02 1.373927191449e-01 0.000000000000e+00
  2.314535545252e-02 8.320756543299e-02 0.000000000000e+00
  2.105233388176e-02 4.276691721883e-02 0.000000000000e+00
  1.886263573496e-02 1.700475838985e-02 0.000000000000e+00
  1.683718441529e-02 2.755974739310e-03 0.000000000000e+00
  1.501280908176e-02 -5.167708106144e-03 0.000000000000e+00
  1.320759258920e-02 -1.135188318089e-02 0.000000000000e+00
  1.111682320176e-02 -1.779796159912e-02 0.000000000000e+00
  8.455654900190e-03 -2.346162662418e-02 0.000000000000e+00
  5.084479196442e-03 -2.543685550093e-02 0.000000000000e+00
  1.063446973032e-03 -2.112692958805e-02 0.000000000000e+00
  -3.382851963893e-03 -1.031314313488e-02 0.000000000000e+00
  -7.968653945762e-03 3.865265024586e-03 0.000000000000e+00
  -1.246836446410e-02 1.546238236577e-02 0.000000000000e+00
  -1.680213731569e-02 1.755379461044e-02 0.000000000000e+00
  -2.105069188078e-02 4.566753080847e-03 0.000000000000e+00
  -2.539535267257e-02 -2.579193908939e-02 0.000000000000e+00
  -3.000884738196e-02 -7.164089276281e-02 0.000000000000e+00
  -3.494008758779e-02 -1.272022245982e-01 0.000000000000e+00
  -4.003745200890e-02 -1.839672031731e-01 0.000000000000e+00
  -4.494113168103e-02 -2.323098305279e-01 0.000000000000e+00
  -4.915113221466e-02 -2.632233201243e-01 0.000000000000e+00
  -5.215135653028e-02 -2.700352276272e-01 0.000000000000e+00
  -5.355057533169e-02 -2.499806982211e-01 0.000000000000e+00
  -5.319539967972e-02 -2.053388447673e-01 0.000000000000e+00
  -5.122125964564e-02 -1.436463316166e-01 0.000000000000e+00
  -4.803030899225e-02 -7.654073368627e-02 0.000000000000e+00
  -4.420955815430e-02 -1.715971318090e-02 0.000000000000e+00
  -4.041758322043e-02 2.338549439549e-02 0.000000000000e+00
  -3.726949636498e-02 3.940276482729e-02 0.000000000000e+00
  -3.524149400502e-02 3.262243743798e-02 0.000000000000e+00
  -3.460598978340e-02 1.188798909495e-02 0.000000000000e+00
  -3.540105424453e-02 -9.574504551087e-03 0.000000000000e+00
  -3.743355929394e-02 -1.843822240010e-02 0.000000000000e+00
  -4.031218246774e-02 -5.570468507602e-03 0.000000000000e+00
  -4.350420521404e-02 3.119828467054e-02 0.000000000000e+00
  -4.641001909996e-02 8.670036663800e-02 0.000000000000e+00
  -4.845048319612e-02 1.503403099675e-01 0.000000000000e+00
  -4.916095259197e-02 2.093677116143e-01 0.000000000000e+00
  -4.827930698607e-02 2.522821873367e-01 0.000000000000e+00
  -4.580668554135e-02 2.713588275069e-01 0.000000000000e+00
  -4.201673527174e-02 2.638275635740e-01 0.000000000000e+00
  -3.739843145601e-02 2.318026260167e-01 0.000000000000e+00
  -3.253806285002e-02 1.813787038806e-01 0.000000000000e+00
  -2.796944354022e-02 1.213013040541e-01 0.000000000000e+00
  -2.403702846226e-02 6.141265375195e-02 0.000000000000e+00
  -2.081681437597e-02 1.092554338440e-02 0.000000000000e+00
  -1.812322897202e-02 -2.334480532364e-02 0.000000000000e+00
  -1.560134103222e-02 -3.842082261421e-02 0.000000000000e+00
  -1.287226464967e-02 -3.574859801515e-02 0.000000000000e+00
  -9.677706116958e-03 -2.054834281694e-02 0.000000000000e+00
  -5.967723539893e-03 2.550924338875e-06 0.000000000000e+00
  -1.897562471330e-03 1.914954734740e-02 0.000000000000e+00
  2.262033398202e-03 3.257599305792e-02 0.000000000000e+00
  6.257700482345e-03 3.921647637309e-02 0.000000000000e+00
  9.965660553465e-03 4.053631563008e-02 0.000000000000e+00
  1.342870777865e-02 3.864989678903e-02 0.000000000000e+00
  1.679955364150e-02 3.422433587971e-02 0.000000000000e+00
  2.021801675896e-02 2.526035522146e-02 0.000000000000e+00
  2.368265562523e-02 7.451739241825e-03 0.000000000000e+00
  2.698127149536e-02 -2.394016573684e-02 0.000000000000e+00
  2.971738252994e-02 -7.152394115957e-02 0.000000000000e+00
  3.142497057586e-02 -1.337142391695e-01 0.000000000000e+00
  3.172378236908e-02 -2.041130626124e-01 0.000000000000e+00
  3.045153723361e-02 -2.725875074111e-01 0.000000000000e+00
  2.772372769037e-02 -3.275543559640e-01 0.000000000000e+00
  2.390635489467e-02 -3.586044571831e-01 0.000000000000e+00
  1.952236593880e-02 -3.587181274824e-01 0.000000000000e+00
  1.513173197294e-02 -3.257168506552e-01 0.000000000000e+00
  1.122312265332e-02 -2.628970028165e-01 0.000000000000e+00
  8.139771593530e-03 -1.788053587703e-01 0.000000000000e+00
  6.045863136160e-03 -8.599207164640e-02 0.000000000000e+00
  4.930252631428e-03 1.355359804933e-03 0.000000000000e+00
  4.640814535655e-03 7.057148312324e-02 0.000000000000e+00
  4.940150303041e-03 1.135765702037e-01 0.000000000000e+00
  5.569222413638e-03 1.286943917315e-01 0.000000000000e+00
  6.302415138551e-03 1.204156648569e-01 0.000000000000e+00
  6.980104685409e-03 9.713751633737e-02 0.000000000000e+00
  7.513877857297e-03 6.780011570247e-02 0.000000000000e+00
  7.870411165659e-03 3.881136413201e-02 0.000000000000e+00
  8.046411436931e-03 1.248338116636e-02 0.000000000000e+00
  0.000000000000e+00 0.000000000000e+00 0.000000000000e+00
  0.000000000000e+00 0.000000000000e+00 0.000000000000e+00
  3.702091184142e-02 -1.164550835431e-02 0.000000000000e+00
  3.638819429981e-02 -3.638819429981e-02 0.000000000000e+00
  3.511245861273e-02 -6.408219134158e-02 0.000000000000e+00
  3.320746792133e-02 -9.266300191138e-02 0.000000000000e+00
  3.077220918087e-02 -1.160169226796e-01 0.000000000000e+00
  2.805856479268e-02 -1.255016780948e-01 0.000000000000e+00
  2.551188773938e-02 -1.129410328162e-01 0.000000000000e+00
  2.374951159841e-02 -7.389453203593e-02 0.000000000000e+00
  2.346117345294e-02 -9.846051692758e-03 0.000000000000e+00
  2.524822133015e-02 7.158528117906e-02 0.000000000000e+00
  2.944698967036e-02 1.584371557313e-01 0.000000000000e+00
  3.598996276759e-02 2.373965754082e-01 0.000000000000e+00
  4.434543387122e-02 2.968441331010e-01 0.000000000000e+00
  5.355505204860e-02 3.290583719126e-01 0.000000000000e+00
  6.237134502491e-02 3.312684773591e-01 0.000000000000e+00
  6.948372433368e-02 3.057020335850e-01 0.000000000000e+00
  7.380106496981e-02 2.588694441991e-01 0.000000000000e+00
  7.472696190980e-02 2.001864706937e-01 0.000000000000e+00
  7.233497470157e-02 1.399861008618e-01 0.000000000000e+00
  6.735476705450e-02 8.719366029758e-02 0.000000000000e+00
  6.093568837237e-02 4.729292260713e-02 0.000000000000e+00
  5.424863546356e-02 2.135550405715e-02 0.000000000000e+00
  4.807304888546e-02 6.606266969767e-03 0.000000000000e+00
  4.254053837481e-02 -1.661114492417e-03 0.000000000000e+00
  3.714687218535e-02 -7.659594112601e-03 0.000000000000e+00
  3.102498625844e-02 -1.327759535306e-02 0.000000000000e+00
  2.335321594845e-02 -1.764905425867e-02 0.000000000000e+00
  1.371524716925e-02 -1.824028338348e-02 0.000000000000e+00
  2.258360696969e-03 -1.284558300979e-02 0.000000000000e+00
  -1.040428460326e-02 -1.485545475935e-03 0.000000000000e+00
  -2.348471835079e-02 1.270390309514e-02 0.000000000000e+00
  -3.636251192627e-02 2.400124838924e-02 0.000000000000e+00
  -4.882557180149e-02 2.581176131422e-02 0.000000000000e+00
  -6.111050464682e-02 1.284227378835e-02 0.000000000000e+00
  -7.373167119444e-02 -1.710163245586e-02 0.000000000000e+00
  -8.717153006338e-02 -6.227784581506e-02 0.000000000000e+00
  -1.015545878111e-01 -1.172509735873e-01 0.000000000000e+00
  -1.164307372385e-01 -1.739449403272e-01 0.000000000000e+00
  -1.307543573968e-01 -2.231047935303e-01 0.000000000000e+00
  -1.430780509877e-01 -2.558946629779e-01 0.000000000000e+00
  -1.519061267446e-01 -2.655355846736e-01 0.000000000000e+00
  -1.560974213481e-01 -2.488898277326e-01 0.000000000000e+00
  -1.551904989605e-01 -2.076918132476e-01 0.000000000000e+00
  -1.495542880819e-01 -1.489037139908e-01 0.000000000000e+00
  -1.403312567454e-01 -8.369733323494e-02 0.000000000000e+00
  -1.292088218056e-01 -2.494629933760e-02 0.000000000000e+00
  -1.180975500541e-01 1.626883393971e-02 0.000000000000e+00
  -1.087994861003e-01 3.407327454137e-02 0.000000000000e+00
  -1.027276914583e-01 2.985213077769e-02 0.000000000000e+00
  -1.007103112124e-01 1.200541132604e-02 0.000000000000e+00
  -1.028927131538e-01 -6.714460363045e-03 0.000000000000e+00
  -1.087389041305e-01 -1.341957056882e-02 0.000000000000e+00
  -1.171231701538e-01 6.737688286885e-04 0.000000000000e+00
  -1.264949504602e-01 3.751785033788e-02 0.000000000000e+00
  -1.350983299615e-01 9.188999429457e-02 0.000000000000e+00
  -1.412300825887e-01 1.533228989629e-01 0.000000000000e+00
  -1.435163458457e-01 2.093818551984e-01 0.000000000000e+00
  -1.411701658212e-01 2.490402180525e-01 0.000000000000e+00
  -1.341685654834e-01 2.651265749464e-01 0.000000000000e+00
  -1.232804082514e-01 2.553817085805e-01 0.000000000000e+00
  -1.099031982003e-01 2.222529671017e-01 0.000000000000e+00
  -9.572553679308e-02 1.718903327508e-01 0.000000000000e+00
  -8.229850371350e-02 1.127940227718e-01 0.000000000000e+00
  -7.064313935052e-02 5.433215557775e-02 0.000000000000e+00
  -6.102124216198e-02 5.163930273646e-03 0.000000000000e+00
  -5.294912365460e-02 -2.834889613051e-02 0.000000000000e+00
  -4.545253137566e-02 -4.343521202981e-02 0.000000000000e+00
  -3.747282662677e-02 -4.144298973309e-02 0.000000000000e+00
  -2.827330786602e-02 -2.724802839360e-02 0.000000000000e+00
  -1.768907339475e-02 -7.591980547916e-03 0.000000000000e+00
  -6.123918352243e-03 1.110876270830e-02 0.000000000000e+00
  5.695326445003e-03 2.463793703011e-02 0.000000000000e+00
  1.708756623827e-02 3.176662552343e-02 0.000000000000e+00
  2.773091176206e-02 3.363486088480e-02 0.000000000000e+00
  3.776640027131e-02 3.205281579987e-02 0.000000000000e+00
  4.763763048095e-02 2.757934079637e-02 0.000000000000e+00
  5.774175118002e-02 1.838276648827e-02 0.000000000000e+00
  6.806289751329e-02 5.435427754641e-04 0.000000000000e+00
  7.797249943500e-02 -3.024018706231e-02 0.000000000000e+00
  8.630460639577e-02 -7.629213782945e-02 0.000000000000e+00
  9.168635479438e-02 -1.360353789441e-01 0.000000000000e+00
  9.298778100154e-02 -2.033921608381e-01 0.000000000000e+00
  8.970774913297e-02 -2.687561321813e-01 0.000000000000e+00
  8.215260257513e-02 -3.211027750927e-01 0.000000000000e+00
  7.136323781095e-02 -3.504493004945e-01 0.000000000000e+00
  5.884847115220e-02 -3.499745285563e-01 0.000000000000e+00
  4.623864914668e-02 -3.174599936099e-01 0.000000000000e+00
  3.496900291050e-02 -2.559756043060e-01 0.000000000000e+00
  2.605921247314e-02 -1.737336157836e-01 0.000000000000e+00
  2.000948748930e-02 -8.292018119186e-02 0.000000000000e+00
  1.680596101974e-02 2.602606324681e-03 0.000000000000e+00
  1.601729101992e-02 7.040234469909e-02 0.000000000000e+00
  1.695592819519e-02 1.125077356852e-01 0.000000000000e+00
  1.886458975155e-02 1.272254925831e-01 0.000000000000e+00
  2.107911373536e-02 1.189368472966e-01 0.000000000000e+00
  2.312621915099e-02 9.589153893516e-02 0.000000000000e+00
  2.474110277871e-02 6.689743630506e-02 0.000000000000e+00
  2.582174669136e-02 3.827686630842e-02 0.000000000000e+00
  2.635595362483e-02 1.230767178522e-02 0.000000000000e+00
  0.000000000000e+00 0.000000000000e+00 0.000000000000e+00
  0.000000000000e+00 0.000000000000e+00 0.000000000000e+00
  6.514656698768e-02 -1.122415085368e-02 0.000000000000e+00
  6.408219134158e-02 -3.511245861273e-02 0.000000000000e+00
  6.194064485403e-02 -6.194064485403e-02 0.000000000000e+00
  5.875217815881e-02 -8.971109101232e-02 0.000000000000e+00
  5.468812851242e-02 -1.124695251918e-01 0.000000000000e+00
  5.016698209028e-02 -1.218142847723e-01 0.000000000000e+00
  4.591433149778e-02 -1.098290984929e-01 0.000000000000e+00
  4.292233062883e-02 -7.225208934930e-02 0.000000000000e+00
  4.228564468079e-02 -1.056347028588e-02 0.000000000000e+00
  4.494317617411e-02 6.785812040167e-02 0.000000000000e+00
  5.139913267165e-02 1.515095916709e-01 0.000000000000e+00
  6.150869773390e-02 2.276716013091e-01 0.000000000000e+00
  7.439171006129e-02 2.853306237691e-01 0.000000000000e+00
  8.850265843338e-02 3.172513146950e-01 0.000000000000e+00
  1.018568634721e-01 3.209050365616e-01 0.000000000000e+00
  1.123911791671e-01 2.984187793789e-01 0.000000000000e+00
  1.184069783692e-01 2.558195585670e-01 0.000000000000e+00
  1.189959598578e-01 2.017214778972e-01 0.000000000000e+00
  1.143071778897e-01 1.455318628346e-01 0.000000000000e+00
  1.055204069232e-01 9.541487693843e-02 0.000000000000e+00
  9.447624264580e-02 5.653494892582e-02 0.000000000000e+00
  8.305713732723e-02 3.021963596584e-02 0.000000000000e+00
  7.254480578641e-02 1.443005318000e-02 0.000000000000e+00
  6.321719121111e-02 5.375224383315e-03 0.000000000000e+00
  5.435694878074e-02 -4.420243685067e-04 0.000000000000e+00
  4.466123675555e-02 -4.677567145051e-03 0.000000000000e+00
  3.286134245950e-02 -6.777417860626e-03 0.000000000000e+00
  1.827261913077e-02 -4.885227673537e-03 0.000000000000e+00
  1.041526832435e-03 2.487340051003e-03 0.000000000000e+00
  -1.799219929803e-02 1.487790289425e-02 0.000000000000e+00
  -3.772339096255e-02 2.915208013766e-02 0.000000000000e+00
  -5.728574978372e-02 3.999322374475e-02 0.000000000000e+00
  -7.640461630076e-02 4.140171235386e-02 0.000000000000e+00
  -9.545233773587e-02 2.858497703483e-02 0.000000000000e+00
  -1.151917244503e-01 -4.837824296585e-04 0.000000000000e+00
  -1.363161924608e-01 -4.433136894284e-02 0.000000000000e+00
  -1.589675550108e-01 -9.816303012931e-02 0.000000000000e+00
  -1.824167797920e-01 -1.547075095239e-01 0.000000000000e+00
  -2.050350229081e-01 -2.054003609776e-01 0.000000000000e+00
  -2.245835391108e-01 -2.417268856163e-01 0.000000000000e+00
  -2.387430457696e-01 -2.567157794494e-01 0.000000000000e+00
  -2.457210625585e-01 -2.465403213364e-01 0.000000000000e+00
  -2.447497736325e-01 -2.119195306668e-01 0.000000000000e+00
  -2.363287195433e-01 -1.587332611879e-01 0.000000000000e+00
  -2.221587157926e-01 -9.726082072301e-02 0.000000000000e+00
  -2.048135928121e-01 -3.985036933711e-02 0.000000000000e+00
  -1.872607212496e-01 2.508761059781e-03 0.000000000000e+00
  -1.723515327446e-01 2.362609536411e-02 0.000000000000e+00
  -1.623748422609e-01 2.425082516087e-02 0.000000000000e+00
  -1.587290616612e-01 1.194355632560e-02 0.000000000000e+00
  -1.617427072734e-01 -1.456557708303e-03 0.000000000000e+00
  -1.706539303500e-01 -3.920059207927e-03 0.000000000000e+00
  -1.837411856668e-01 1.264577863568e-02 0.000000000000e+00
  -1.985802628649e-01 4.975669774729e-02 0.000000000000e+00
  -2.123956880049e-01 1.020699511523e-01 0.000000000000e+00
  -2.224754857985e-01 1.593544921017e-01 0.000000000000e+00
  -2.266123554974e-01 2.097733945776e-01 0.000000000000e+00
  -2.235096245701e-01 2.431997673023e-01 0.000000000000e+00
  -2.130580457168e-01 2.535138461290e-01 0.000000000000e+00
  -1.963812151065e-01 2.394294492364e-01 0.000000000000e+00
  -1.755893132980e-01 2.040361143300e-01 0.000000000000e+00
  -1.532688818769e-01 1.536090924987e-01 0.000000000000e+00
  -1.318349538192e-01 9.621430174476e-02 0.000000000000e+00
  -1.129356705767e-01 4.035722890115e-02 0.000000000000e+00
  -9.709778222471e-02 -6.320928654912e-03 0.000000000000e+00
  -8.373005800032e-02 -3.830387997435e-02 0.000000000000e+00
  -7.148226813603e-02 -5.322461035355e-02 0.000000000000e+00
  -5.882999046845e-02 -5.228557383973e-02 0.000000000000e+00
  -4.466749616885e-02 -3.976745735489e-02 0.000000000000e+00
  -2.868203997900e-02 -2.164224225169e-02 0.000000000000e+00
  -1.136681142661e-02 -3.721359184770e-03 0.000000000000e+00
  6.318488494232e-03 9.963514204179e-03 0.000000000000e+00
  2.347235103296e-02 1.789494601696e-02 0.000000000000e+00
  3.970408811118e-02 2.063145778909e-02 0.000000000000e+00
  5.528504235154e-02 1.943977614591e-02 0.000000000000e+00
  7.091088710579e-02 1.469530548642e-02 0.000000000000e+00
  8.717948189410e-02 4.894086310837e-03 0.000000000000e+00
  1.040366326242e-01 -1.314607411047e-02 0.000000000000e+00
  1.204696673479e-01 -4.289320682182e-02 0.000000000000e+00
  1.346190567791e-01 -8.612061446190e-02 0.000000000000e+00
  1.442848722406e-01 -1.412544661718e-01 0.000000000000e+00
  1.476248340585e-01 -2.028144616354e-01 0.000000000000e+00
  1.437629896188e-01 -2.621919550757e-01 0.000000000000e+00
  1.330845986844e-01 -3.094334147062e-01 0.000000000000e+00
  1.171425433689e-01 -3.353872408014e-01 0.000000000000e+00
  9.825781728976e-02 -3.336370955116e-01 0.000000000000e+00
  7.898544835270e-02 -3.019152357121e-01 0.000000000000e+00
  6.161437131666e-02 -2.428796389316e-01 0.000000000000e+00
  4.780753766822e-02 -1.641129570722e-01 0.000000000000e+00
  3.841991072412e-02 -7.710348797531e-02 0.000000000000e+00
  3.348957106535e-02 4.919779236453e-03 0.000000000000e+00
  3.237810506869e-02 6.998530778381e-02 0.000000000000e+00
  3.402021440907e-02 1.103440260848e-01 0.000000000000e+00
  3.721970078951e-02 1.242810542466e-01 0.000000000000e+00
  4.091281793915e-02 1.159736444996e-01 0.000000000000e+00
  4.433089876596e-02 9.338955548976e-02 0.000000000000e+00
  4.703565469972e-02 6.507978018897e-02 0.000000000000e+00
  4.885154514935e-02 3.719798806223e-02 0.000000000000e+00
  4.975137631046e-02 1.195251193682e-02 0.000000000000e+00
  0.000000000000e+00 0.000000000000e+00 0.000000000000e+00
  0.000000000000e+00 0.000000000000e+00 0.000000000000e+00
  9.413381362851e-02 -1.059395418184e-02 0.000000000000e+00
  9.266300191138e-02 -3.320746792133e-02 0.000000000000e+00
  8.971109101232e-02 -5.875217815881e-02 0.000000000000e+00
  8.533260534330e-02 -8.533260534330e-02 0.000000000000e+00
  7.977610519853e-02 -1.072274610697e-01 0.000000000000e+00
  7.361921624678e-02 -1.163783135206e-01 0.000000000000e+00
  6.783768619760e-02 -1.052308891029e-01 0.000000000000e+00
  6.374011201137e-02 -6.976072368406e-02 0.000000000000e+00
  6.274333740144e-02 -1.142137539317e-02 0.000000000000e+00
  6.603148313744e-02 6.277034827964e-02 0.000000000000e+00
  7.419707333401e-02 1.419758170988e-01 0.000000000000e+00
  8.697510317239e-02 2.143177809806e-01 0.000000000000e+00
  1.031497916919e-01 2.696267432507e-01 0.000000000000e+00
  1.206658008856e-01 3.013282376476e-01 0.000000000000e+00
  1.369371146157e-01 3.072025948402e-01 0.000000000000e+00
  1.493190582160e-01 2.892049618050e-01 0.000000000000e+00
  1.556727690402e-01 2.526638661146e-01 0.000000000000e+00
  1.548966378123e-01 2.050643200888e-01 0.000000000000e+00
  1.472510361019e-01 1.545234043214e-01 0.000000000000e+00
  1.343132865244e-01 1.081478559958e-01 0.000000000000e+00
  1.185052493762e-01 7.065417129404e-02 0.000000000000e+00
  1.023120636788e-01 4.371270461357e-02 0.000000000000e+00
  8.747128426027e-02 2.629009549163e-02 0.000000000000e+00