# vtk DataFile Version 3.0
Karman Output
ASCII
DATASET RECTILINEAR_GRID
DIMENSIONS 101 101 1
X_COORDINATES 101 float
   0.000000000000e+00   9.900990099010e-03   1.980198019802e-02   2.970297029703e-02   3.960396039604e-02   4.950495049505e-02   5.940594059406e-02   6.930693069307e-02   7.920792079208e-02   8.910891089109e-02   9.900990099010e-02   1.089108910891e-01   1.188118811881e-01   1.287128712871e-01   1.386138613861e-01   1.485148514851e-01   1.584158415842e-01   1.683168316832e-01   1.782178217822e-01   1.881188118812e-01   1.980198019802e-01   2.079207920792e-01   2.178217821782e-01   2.277227722772e-01   2.376237623762e-01   2.475247524752e-01   2.574257425743e-01   2.673267326733e-01   2.772277227723e-01   2.871287128713e-01   2.970297029703e-01   3.069306930693e-01   3.168316831683e-01   3.267326732673e-01   3.366336633663e-01   3.465346534653e-01   3.564356435644e-01   3.663366336634e-01   3.762376237624e-01   3.861386138614e-01   3.960396039604e-01   4.059405940594e-01   4.158415841584e-01   4.257425742574e-01   4.356435643564e-01   4.455445544554e-01   4.554455445545e-01   4.653465346535e-01   4.752475247525e-01   4.851485148515e-01   4.950495049505e-01   5.049504950495e-01   5.148514851485e-01   5.247524752475e-01   5.346534653465e-01   5.445544554455e-01   5.544554455446e-01   5.643564356436e-01   5.742574257426e-01   5.841584158416e-01   5.940594059406e-01   6.039603960396e-01   6.138613861386e-01   6.237623762376e-01   6.336633663366e-01   6.435643564356e-01   6.534653465347e-01   6.633663366337e-01   6.732673267327e-01   6.831683168317e-01   6.930693069307e-01   7.029702970297e-01   7.128712871287e-01   7.227722772277e-01   7.326732673267e-01   7.425742574257e-01   7.524752475248e-01   7.623762376238e-01   7.722772277228e-01   7.821782178218e-01   7.920792079208e-01   8.019801980198e-01   8.118811881188e-01   8.217821782178e-01   8.316831683168e-01   8.415841584158e-01   8.514851485149e-01   8.613861386139e-01   8.712871287129e-01   8.811881188119e-01   8.910891089109e-01   9.009900990099e-01   9.108910891089e-01   9.207920792079e-01   9.306930693069e-01   9.405940594059e-01   9.504950495050e-01   9.603960396040e-01   9.702970297030e-01   9.801980198020e-01   9.900990099010e-01
Y_COORDINATES 101 float
   0.000000000000e+00   9.900990099010e-03   1.980198019802e-02   2.970297029703e-02   3.960396039604e-02   4.950495049505e-02   5.940594059406e-02   6.930693069307e-02   7.920792079208e-02   8.910891089109e-02   9.900990099010e-02   1.089108910891e-01   1.188118811881e-01   1.287128712871e-01   1.386138613861e-01   1.485148514851e-01   1.584158415842e-01   1.683168316832e-01   1.782178217822e-01   1.881188118812e-01   1.980198019802e-01   2.079207920792e-01   2.178217821782e-01   2.277227722772e-01   2.376237623762e-01   2.475247524752e-01   2.574257425743e-01   2.673267326733e-01   2.772277227723e-01   2.871287128713e-01   2.970297029703e-01   3.069306930693e-01   3.168316831683e-01   3.267326732673e-01   3.366336633663e-01   3.465346534653e-01   3.564356435644e-01   3.663366336634e-01   3.762376237624e-01   3.861386138614e-01   3.960396039604e-01   4.059405940594e-01   4.158415841584e-01   4.257425742574e-01   4.356435643564e-01   4.455445544554e-01   4.554455445545e-01   4.653465346535e-01   4.752475247525e-01   4.851485148515e-01   4.950495049505e-01   5.049504950495e-01   5.148514851485e-01   5.247524752475e-01   5.346534653465e-01   5.445544554455e-01   5.544554455446e-01   5.643564356436e-01   5.742574257426e-01   5.841584158416e-01   5.940594059406e-01   6.039603960396e-01   6.138613861386e-01   6.237623762376e-01   6.336633663366e-01   6.435643564356e-01   6.534653465347e-01   6.633663366337e-01   6.732673267327e-01   6.831683168317e-01   6.930693069307e-01   7.029702970297e-01   7.128712871287e-01   7.227722772277e-01   7.326732673267e-01   7.425742574257e-01   7.524752475248e-01   7.623762376238e-01   7.722772277228e-01   7.821782178218e-01   7.920792079208e-01   8.019801980198e-01   8.118811881188e-01   8.217821782178e-01   8.316831683168e-01   8.415841584158e-01   8.514851485149e-01   8.613861386139e-01   8.712871287129e-01   8.811881188119e-01   8.910891089109e-01   9.009900990099e-01   9.108910891089e-01   9.207920792079e-01   9.306930693069e-01   9.405940594059e-01   9.504950495050e-01   9.603960396040e-01   9.702970297030e-01   9.801980198020e-01   9.900990099010e-01
Z_COORDINATES 1 float
  0.000000000000e+00
POINT_DATA 10201
VECTORS E_field float
  0.000000000000e+00 0.000000000000e+00 0.000000000000e+00
  0.000000000000e+00 0.000000000000e+00 0.000000000000e+00
  0.000000000000e+00 0.000000000000e+00 0.000000000000e+00
  0.000000000000e+00 0.000000000000e+00 0.000000000000e+00
  0.000000000000e+00 0.000000000000e+00 0.000000000000e+00
  0.000000000000e+00 0.000000000000e+00 0.000000000000e+00
  0.000000000000e+00 0.000000000000e+00 0.000000000000e+00
  0.000000000000e+00 0.000000000000e+00 0.000000000000e+00
  0.000000000000e+00 0.000000000000e+00 0.000000000000e+00
  0.000000000000e+00 0.000000000000e+00 0.000000000000e+00
  0.000000000000e+00 0.000000000000e+00 0.000000000000e+00
  0.000000000000e+00 0.000000000000e+00 0.000000000000e+00
  0.000000000000e+00 0.000000000000e+00 0.000000000000e+00
  0.000000000000e+00 0.000000000000e+00 0.000000000000e+00
  0.000000000000e+00 0.000000000000e+00 0.000000000000e+00
  0.000000000000e+00 0.000000000000e+00 0.000000000000e+00
  0.000000000000e+00 0.000000000000e+00 0.000000000000e+00
  0.000000000000e+00 0.000000000000e+00 0.000000000000e+00
  0.000000000000e+00 0.000000000000e+00 0.000000000000e+00
  0.000000000000e+00 0.000000000000e+00 0.000000000000e+00
  0.000000000000e+00 0.000000000000e+00 0.000000000000e+00
  0.000000000000e+00 0.000000000000e+00 0.000000000000e+00
  0.000000000000e+00 0.000000000000e+00 0.000000000000e+00
  0.000000000000e+00 0.000000000000e+00 0.000000000000e+00
  0.000000000000e+00 0.000000000000e+00 0.000000000000e+00
  0.000000000000e+00 0.000000000000e+00 0.000000000000e+00
  0.000000000000e+00 0.000000000000e+00 0.000000000000e+00
  0.000000000000e+00 0.000000000000e+00 0.000000000000e+00
  0.000000000000e+00 0.000000000000e+00 0.000000000000e+00
  0.000000000000e+00 0.000000000000e+00 0.000000000000e+00
  0.000000000000e+00 0.000000000000e+00 0.000000000000e+00
  0.000000000000e+00 0.000000000000e+00 0.000000000000e+00
  0.000000000000e+00 0.000000000000e+00 0.000000000000e+00
  0.000000000000e+00 0.000000000000e+00 0.000000000000e+00
  0.000000000000e+00 0.000000000000e+00 0.000000000000e+00
  0.000000000000e+00 0.000000000000e+00 0.000000000000e+00
  0.000000000000e+00 0.000000000000e+00 0.000000000000e+00
  0.000000000000e+00 0.000000000000e+00 0.000000000000e+00
  0.000000000000e+00 0.000000000000e+00 0.000000000000e+00
  0.000000000000e+00 0.000000000000e+00 0.000000000000e+00
  0.000000000000e+00 0.000000000000e+00 0.000000000000e+00
  0.000000000000e+00 0.000000000000e+00 0.000000000000e+00
  0.000000000000e+00 0.000000000000e+00 0.000000000000e+00
  0.000000000000e+00 0.000000000000e+00 0.000000000000e+00
  0.000000000000e+00 0.000000000000e+00 0.000000000000e+00
  0.000000000000e+00 0.000000000000e+00 0.000000000000e+00
  0.000000000000e+00 0.000000000000e+00 0.000000000000e+00
  0.000000000000e+00 0.000000000000e+00 0.000000000000e+00
  0.000000000000e+00 0.000000000000e+00 0.000000000000e+00
  0.000000000000e+00 0.000000000000e+00 0.000000000000e+00
  0.000000000000e+00 0.000000000000e+00 0.000000000000e+00
  0.000000000000e+00 0.000000000000e+00 0.000000000000e+00
  0.000000000000e+00 0.000000000000e+00 0.000000000000e+00
  0.000000000000e+00 0.000000000000e+00 0.000000000000e+00
  0.000000000000e+00 0.000000000000e+00 0.000000000000e+00
  0.000000000000e+00 0.000000000000e+00 0.000000000000e+00
  0.000000000000e+00 0.000000000000e+00 0.000000000000e+00
  0.000000000000e+00 0.000000000000e+00 0.000000000000e+00
  0.000000000000e+00 0.000000000000e+00 0.000000000000e+00
  0.000000000000e+00 0.000000000000e+00 0.000000000000e+00
  0.000000000000e+00 0.000000000000e+00 0.000000000000e+00
  0.000000000000e+00 0.000000000000e+00 0.000000000000e+00
  0.000000000000e+00 0.000000000000e+00 0.000000000000e+00
  0.000000000000e+00 0.000000000000e+00 0.000000000000e+00
  0.000000000000e+00 0.000000000000e+00 0.000000000000e+00
  0.000000000000e+00 0.000000000000e+00 0.000000000000e+00
  0.000000000000e+00 0.000000000000e+00 0.000000000000e+00
  0.000000000000e+00 0.000000000000e+00 0.000000000000e+00
  0.000000000000e+00 0.000000000000e+00 0.000000000000e+00
  0.000000000000e+00 0.000000000000e+00 0.000000000000e+00
  0.000000000000e+00 0.000000000000e+00 0.000000000000e+00
  0.000000000000e+00 0.000000000000e+00 0.000000000000e+00
  0.000000000000e+00 0.000000000000e+00 0.000000000000e+00
  0.000000000000e+00 0.000000000000e+00 0.000000000000e+00
  0.000000000000e+00 0.000000000000e+00 0.000000000000e+00
  0.000000000000e+00 0.000000000000e+00 0.000000000000e+00
  0.000000000000e+00 0.000000000000e+00 0.000000000000e+00
  0.000000000000e+00 0.000000000000e+00 0.000000000000e+00
  0.000000000000e+00 0.000000000000e+00 0.000000000000e+00
  0.000000000000e+00 0.000000000000e+00 0.000000000000e+00
  0.000000000000e+00 0.000000000000e+00 0.000000000000e+00
  0.000000000000e+00 0.000000000000e+00 0.000000000000e+00
  0.000000000000e+00 0.000000000000e+00 0.000000000000e+00
  0.000000000000e+00 0.000000000000e+00 0.000000000000e+00
  0.000000000000e+00 0.000000000000e+00 0.000000000000e+00
  0.000000000000e+00 0.000000000000e+00 0.000000000000e+00
  0.000000000000e+00 0.000000000000e+00 0.000000000000e+00
  0.000000000000e+00 0.000000000000e+00 0.000000000000e+00
  0.000000000000e+00 0.000000000000e+00 0.000000000000e+00
  0.000000000000e+00 0.000000000000e+00 0.000000000000e+00
  0.000000000000e+00 0.000000000000e+00 0.000000000000e+00
  0.000000000000e+00 0.000000000000e+00 0.000000000000e+00
  0.000000000000e+00 0.000000000000e+00 0.000000000000e+00
  0.000000000000e+00 0.000000000000e+00 0.000000000000e+00
  0.000000000000e+00 0.000000000000e+00 0.000000000000e+00
  0.000000000000e+00 0.000000000000e+00 0.000000000000e+00
  0.000000000000e+00 0.000000000000e+00 0.000000000000e+00
  0.000000000000e+00 0.000000000000e+00 0.000000000000e+00
  0.000000000000e+00 0.000000000000e+00 0.000000000000e+00
  0.000000000000e+00 0.000000000000e+00 0.000000000000e+00
  0.000000000000e+00 0.000000000000e+00 0.000000000000e+00
  0.000000000000e+00 0.000000000000e+00 0.000000000000e+00
  -4.328646196143e-04 4.328646196150e-04 0.000000000000e+00
  1.945522523942e-05 4.017852214626e-03 0.000000000000e+00
  9.274146098360e-04 1.499999031246e-02 0.000000000000e+00
  2.282405734061e-03 3.598455551495e-02 0.000000000000e+00
  4.044622669052e-03 6.677484739725e-02 0.000000000000e+00
  6.134916367557e-03 1.044524249834e-01 0.000000000000e+00
  8.447687447187e-03 1.442432972455e-01 0.000000000000e+00
  1.088411062292e-02 1.808522854501e-01 0.000000000000e+00
  1.339429183045e-02 2.097459079985e-01 0.000000000000e+00
  1.600987174106e-02 2.278953130690e-01 0.000000000000e+00
  1.884762893315e-02 2.337861778373e-01 0.000000000000e+00
  2.207226975475e-02 2.269177362395e-01 0.000000000000e+00
  2.582318561754e-02 2.072889849025e-01 0.000000000000e+00
  3.012999456310e-02 1.753065735752e-01 0.000000000000e+00
  3.485388694401e-02 1.321714160745e-01 0.000000000000e+00
  3.968593598235e-02 8.037411307639e-02 0.000000000000e+00
  4.420930088809e-02 2.377678227285e-02 0.000000000000e+00
  4.800194102218e-02 -3.298489874245e-02 0.000000000000e+00
  5.073779280006e-02 -8.555661881378e-02 0.000000000000e+00
  5.224828002986e-02 -1.308016266046e-01 0.000000000000e+00
  5.252896968845e-02 -1.671089270418e-01 0.000000000000e+00
  5.170287857912e-02 -1.940162888008e-01 0.000000000000e+00
  4.996650663403e-02 -2.115825574954e-01 0.000000000000e+00
  4.754147325173e-02 -2.200765550839e-01 0.000000000000e+00
  4.464075505839e-02 -2.202011905297e-01 0.000000000000e+00
  4.144669147173e-02 -2.135206015912e-01 0.000000000000e+00
  3.809604793429e-02 -2.024768368528e-01 0.000000000000e+00
  3.467330210901e-02 -1.896411004386e-01 0.000000000000e+00
  3.121815866642e-02 -1.764689822063e-01 0.000000000000e+00
  2.775024642891e-02 -1.623310294821e-01 0.000000000000e+00
  2.430406111402e-02 -1.445626833361e-01 0.000000000000e+00
  2.095828186595e-02 -1.197161559463e-01 0.000000000000e+00
  1.784345556111e-02 -8.548373601844e-02 0.000000000000e+00
  1.512214997404e-02 -4.236134054809e-02 0.000000000000e+00
  1.294982719688e-02 5.747201110749e-03 0.000000000000e+00
  1.143372030296e-02 5.225124332077e-02 0.000000000000e+00
  1.060560174040e-02 8.958898735798e-02 0.000000000000e+00
  1.041472238707e-02 1.112507973341e-01 0.000000000000e+00
  1.073687068818e-02 1.134177078997e-01 0.000000000000e+00
  1.139119011525e-02 9.578130245824e-02 0.000000000000e+00
  1.215935054134e-02 6.145962716874e-02 0.000000000000e+00
  1.280773911859e-02 1.620956638368e-02 0.000000000000e+00
  1.311684685108e-02 -3.272519637538e-02 0.000000000000e+00
  1.291974756342e-02 -7.781519992374e-02 0.000000000000e+00
  1.214424288424e-02 -1.123149204609e-01 0.000000000000e+00
  1.084495294421e-02 -1.311620490458e-01 0.000000000000e+00
  9.207990206183e-03 -1.317102025471e-01 0.000000000000e+00
  7.516346673376e-03 -1.142237325747e-01 0.000000000000e+00
  6.078852344650e-03 -8.196295838438e-02 0.000000000000e+00
  5.143463906174e-03 -4.069441730564e-02 0.000000000000e+00
  4.826712997487e-03 2.375853417449e-03 0.000000000000e+00
  5.087508950736e-03 4.001087443430e-02 0.000000000000e+00
  5.755337580588e-03 6.630236402660e-02 0.000000000000e+00
  6.599347342181e-03 7.762344827249e-02 0.000000000000e+00
  7.408451290933e-03 7.301596912416e-02 0.000000000000e+00
  8.051472304964e-03 5.408655235703e-02 0.000000000000e+00
  8.499469359555e-03 2.460426149777e-02 0.000000000000e+00
  8.811226089188e-03 -1.005340742217e-02 0.000000000000e+00
  9.097502767393e-03 -4.358980591829e-02 0.000000000000e+00
  9.484109126673e-03 -6.967253071814e-02 0.000000000000e+00
  1.008812434093e-02 -8.300901607898e-02 0.000000000000e+00
  1.101018292218e-02 -8.045175735639e-02 0.000000000000e+00
  1.233509391602e-02 -6.182143685978e-02 0.000000000000e+00
  1.412886087028e-02 -3.010169915711e-02 0.000000000000e+00
  1.642476643488e-02 9.214166357168e-03 0.000000000000e+00
  1.920177934887e-02 4.957274353246e-02 0.000000000000e+00
  2.236809832681e-02 8.521704202182e-02 0.000000000000e+00
  2.576417955617e-02 1.128025782616e-01 0.000000000000e+00
  2.919123663510e-02 1.321138779675e-01 0.000000000000e+00
  3.245787510200e-02 1.455445991337e-01 0.000000000000e+00
  3.542748745064e-02 1.565629303956e-01 0.000000000000e+00
  3.804803153033e-02 1.678942559452e-01 0.000000000000e+00
  4.035346440444e-02 1.802941476901e-01 0.000000000000e+00
  4.243705110521e-02 1.924269852852e-01 0.000000000000e+00
  4.440520349083e-02 2.017087778074e-01 0.000000000000e+00
  4.632424201388e-02 2.054486087976e-01 0.000000000000e+00
  4.817337464495e-02 2.015882323909e-01 0.000000000000e+00
  4.981777503015e-02 1.887886066165e-01 0.000000000000e+00
  5.101519163492e-02 1.661689576143e-01 0.000000000000e+00
  5.146386635235e-02 1.332243109981e-01 0.000000000000e+00
  5.088568189928e-02 9.018537778136e-02 0.000000000000e+00
  4.911999478976e-02 3.859894135811e-02 0.000000000000e+00
  4.619113832837e-02 -1.837736007252e-02 0.000000000000e+00
  4.231698967400e-02 -7.632315258676e-02 0.000000000000e+00
  3.784933316955e-02 -1.304558216245e-01 0.000000000000e+00
  3.316838876058e-02 -1.766098250124e-01 0.000000000000e+00
  2.857608696006e-02 -2.117953845707e-01 0.000000000000e+00
  2.423222381864e-02 -2.341719961614e-01 0.000000000000e+00
  2.015486367657e-02 -2.427005078436e-01 0.000000000000e+00
  1.627494533873e-02 -2.369365217491e-01 0.000000000000e+00
  1.251259972397e-02 -2.172597005922e-01 0.000000000000e+00
  8.839377614954e-03 -1.854346387857e-01 0.000000000000e+00
  5.304139643116e-03 -1.450645117566e-01 0.000000000000e+00
  2.020188557390e-03 -1.014627214157e-01 0.000000000000e+00
  -8.730416891188e-04 -6.074818092045e-02 0.000000000000e+00
  -3.253455273878e-03 -2.838161815834e-02 0.000000000000e+00
  -5.046081796989e-03 -7.660731608516e-03 0.000000000000e+00
  -6.228250280384e-03 1.263713092887e-03 0.000000000000e+00
  -6.811225096260e-03 1.486634712549e-03 0.000000000000e+00
  0.000000000000e+00 0.000000000000e+00 0.000000000000e+00
  0.000000000000e+00 0.000000000000e+00 0.000000000000e+00
  -4.017852214625e-03 -1.945522523899e-05 0.000000000000e+00
  -2.653634500818e-03 2.653634500818e-03 0.000000000000e+00
  8.237782086601e-05 1.272023631998e-02 0.000000000000e+00
  4.161187294544e-03 3.283050890952e-02 0.000000000000e+00
  9.461457099238e-03 6.286640726299e-02 0.000000000000e+00
  1.574619500755e-02 9.998583351082e-02 0.000000000000e+00
  2.270086012958e-02 1.394424525164e-01 0.000000000000e+00
  3.003079911021e-02 1.758867680228e-01 0.000000000000e+00
  3.758434804492e-02 2.046476952835e-01 0.000000000000e+00
  4.544713886180e-02 2.225151550565e-01 0.000000000000e+00
  5.395094157563e-02 2.278247759439e-01 0.000000000000e+00
  6.356364171919e-02 2.200417971678e-01 0.000000000000e+00
  7.467581895721e-02 1.993018308734e-01 0.000000000000e+00
  8.735712486799e-02 1.663056127479e-01 0.000000000000e+00
  1.011897491994e-01 1.226158601895e-01 0.000000000000e+00
  1.152679829017e-01 7.101938622083e-02 0.000000000000e+00
  1.283821503917e-01 1.549397673269e-02 0.000000000000e+00
  1.393177584359e-01 -3.943034138063e-02 0.000000000000e+00
  1.471475082688e-01 -8.967677778638e-02 0.000000000000e+00
  1.514060929528e-01 -1.324505395458e-01 0.000000000000e+00
  1.521049183285e-01 -1.664395291350e-01 0.000000000000e+00
  1.496216773380e-01 -1.913763546079e-01 0.000000000000e+00
  1.445418368164e-01 -2.074062792216e-01 0.000000000000e+00
  1.375189758454e-01 -2.148049390045e-01 0.000000000000e+00
  1.291792584004e-01 -2.142323709708e-01 0.000000000000e+00
  1.200597347328e-01 -2.071758338958e-01 0.000000000000e+00
  1.105645175159e-01 -1.959757437939e-01 0.000000000000e+00
  1.009412508938e-01 -1.830961810502e-01 0.000000000000e+00
  9.129668137287e-02 -1.699141886312e-01 0.000000000000e+00
  8.166328899057e-02 -1.557845184374e-01 0.000000000000e+00
  7.210049223434e-02 -1.381002123096e-01 0.000000000000e+00
  6.278604411097e-02 -1.135183996012e-01 0.000000000000e+00
  5.404957266816e-02 -7.983019461549e-02 0.000000000000e+00
  4.632682726266e-02 -3.757083095761e-02 0.000000000000e+00
  4.005377099983e-02 9.402070561879e-03 0.000000000000e+00
  3.554802949614e-02 5.461822227019e-02 0.000000000000e+00
  3.292472563912e-02 9.067343083322e-02 0.000000000000e+00
  3.206862700228e-02 1.112133318574e-01 0.000000000000e+00
  3.265483320506e-02 1.125468188856e-01 0.000000000000e+00
  3.419543637419e-02 9.445726889560e-02 0.000000000000e+00
  3.609502369866e-02 6.011591300845e-02 0.000000000000e+00
  3.771374171350e-02 1.528617398921e-02 0.000000000000e+00
  3.844763637697e-02 -3.284480632898e-02 0.000000000000e+00
  3.783210435398e-02 -7.688295860123e-02 0.000000000000e+00
  3.565582717453e-02 -1.102953798578e-01 0.000000000000e+00
  3.204959072528e-02 -1.282760631873e-01 0.000000000000e+00
  2.750268582556e-02 -1.284123206950e-01 0.000000000000e+00
  2.277287405195e-02 -1.111001590529e-01 0.000000000000e+00
  1.869578559453e-02 -7.957194906428e-02 0.000000000000e+00
  1.594962780592e-02 -3.940388036037e-02 0.000000000000e+00
  1.486274585063e-02 2.488949352818e-03 0.000000000000e+00
  1.534204548810e-02 3.915768290137e-02 0.000000000000e+00
  1.694974895768e-02 6.488002343052e-02 0.000000000000e+00
  1.909032311225e-02 7.606120490336e-02 0.000000000000e+00
  2.122452415233e-02 7.163490744111e-02 0.000000000000e+00
  2.302600467137e-02 5.302311243556e-02 0.000000000000e+00
  2.443405655767e-02 2.381165240503e-02 0.000000000000e+00
  2.560884934318e-02 -1.074734791435e-02 0.000000000000e+00
  2.683446846035e-02 -4.440776128372e-02 0.000000000000e+00
  2.842426825385e-02 -7.083098155785e-02 0.000000000000e+00
  3.066433999986e-02 -8.469465224126e-02 0.000000000000e+00
  3.379869265487e-02 -8.282253246189e-02 0.000000000000e+00
  3.803242942197e-02 -6.500930953790e-02 0.000000000000e+00
  4.352118722877e-02 -3.419635125557e-02 0.000000000000e+00
  5.033044499198e-02 4.203655117705e-03 0.000000000000e+00
  5.837741008718e-02 4.375927675644e-02 0.000000000000e+00
  6.739165526537e-02 7.884994463799e-02 0.000000000000e+00
  7.693115436705e-02 1.062340953123e-01 0.000000000000e+00
  8.646529642926e-02 1.257211617745e-01 0.000000000000e+00
  9.550091329667e-02 1.396350599918e-01 0.000000000000e+00
  1.037034687872e-01 1.513003016981e-01 0.000000000000e+00
  1.109667610228e-01 1.632730483273e-01 0.000000000000e+00
  1.174071564287e-01 1.761695270280e-01 0.000000000000e+00
  1.232867311078e-01 1.885884445674e-01 0.000000000000e+00
  1.288889839887e-01 1.979769132587e-01 0.000000000000e+00
  1.343776643914e-01 2.017727544205e-01 0.000000000000e+00
  1.396711234693e-01 1.981214950591e-01 0.000000000000e+00
  1.443686711083e-01 1.859133959241e-01 0.000000000000e+00
  1.477677746979e-01 1.644476481123e-01 0.000000000000e+00
  1.489973614198e-01 1.332673590607e-01 0.000000000000e+00
  1.472531407362e-01 9.246473485551e-02 0.000000000000e+00
  1.420664147126e-01 4.327199741707e-02 0.000000000000e+00
  1.334999826170e-01 -1.155512757453e-02 0.000000000000e+00
  1.221759534909e-01 -6.794720730432e-02 0.000000000000e+00
  1.091069335766e-01 -1.212950904882e-01 0.000000000000e+00
  9.539347074475e-02 -1.673761489079e-01 0.000000000000e+00
  8.191550090932e-02 -2.029587890393e-01 0.000000000000e+00
  6.914540935142e-02 -2.258946369935e-01 0.000000000000e+00
  5.714573038998e-02 -2.349008279080e-01 0.000000000000e+00
  4.572428479111e-02 -2.294348377480e-01 0.000000000000e+00
  3.465413135262e-02 -2.099288855400e-01 0.000000000000e+00
  2.385477330994e-02 -1.782928736862e-01 0.000000000000e+00
  1.346900683867e-02 -1.382852724130e-01 0.000000000000e+00
  3.826925745097e-03 -9.531592857999e-02 0.000000000000e+00
  -4.665024619027e-03 -5.550979314550e-02 0.000000000000e+00
  -1.165076293012e-02 -2.425385403743e-02 0.000000000000e+00
  -1.691158719077e-02 -4.735044945660e-03 0.000000000000e+00
  -2.038128564077e-02 2.989893363429e-03 0.000000000000e+00
  -2.209255395296e-02 2.054697570078e-03 0.000000000000e+00
  0.000000000000e+00 0.000000000000e+00 0.000000000000e+00
  0.000000000000e+00 0.000000000000e+00 0.000000000000e+00
  -1.499999031246e-02 -9.274146098361e-04 0.000000000000e+00
  -1.272023631998e-02 -8.237782086585e-05 0.000000000000e+00
  -8.154221351018e-03 8.154221351018e-03 0.000000000000e+00
  -1.357656494645e-03 2.652114954843e-02 0.000000000000e+00
  7.464766405918e-03 5.505307391882e-02 0.000000000000e+00
  1.792366182152e-02 9.105553353108e-02 0.000000000000e+00
  2.950615564410e-02 1.298355935515e-01 0.000000000000e+00
  4.173062251997e-02 1.659392211312e-01 0.000000000000e+00
  5.434067850700e-02 1.944316372534e-01 0.000000000000e+00
  6.745104922649e-02 2.117580515503e-01 0.000000000000e+00
  8.155631869857e-02 2.159728072642e-01 0.000000000000e+00
  9.735328372027e-02 2.064841006822e-01 0.000000000000e+00
  1.154059684276e-01 1.836946654137e-01 0.000000000000e+00
  1.357709800928e-01 1.488664606317e-01 0.000000000000e+00
  1.577498330679e-01 1.042435349991e-01 0.000000000000e+00
  1.799023547047e-01 5.316095607221e-02 0.000000000000e+00
  2.003438090745e-01 -2.032149785137e-04 0.000000000000e+00
  2.172139471512e-01 -5.153889579037e-02 0.000000000000e+00
  2.291265215721e-01 -9.731054763042e-02 0.000000000000e+00
  2.354298534693e-01 -1.353786862829e-01 0.000000000000e+00
  2.362156467184e-01 -1.649960010228e-01 0.000000000000e+00
  2.321351514116e-01 -1.862561464228e-01 0.000000000000e+00
  2.241466492418e-01 -1.994581447152e-01 0.000000000000e+00
  2.132998663689e-01 -2.048834296669e-01 0.000000000000e+00
  2.005940767718e-01 -2.031083732662e-01 0.000000000000e+00
  1.868878143306e-01 -1.954740454916e-01 0.000000000000e+00
  1.728289338280e-01 -1.841234344786e-01 0.000000000000e+00
  1.588062549996e-01 -1.713025449150e-01 0.000000000000e+00
  1.449562103941e-01 -1.582132106398e-01 0.000000000000e+00
  1.312528452239e-01 -1.441487388760e-01 0.000000000000e+00
  1.176658073858e-01 -1.265861572760e-01 0.000000000000e+00
  1.043218076917e-01 -1.023740068158e-01 0.000000000000e+00
  9.158993477184e-02 -6.950624303541e-02 0.000000000000e+00
  8.004488307786e-02 -2.862698543253e-02 0.000000000000e+00
  7.032402451567e-02 1.645213987246e-02 0.000000000000e+00
  6.294472398554e-02 5.945319501246e-02 0.000000000000e+00
  5.815788988940e-02 9.324859607654e-02 0.000000000000e+00
  5.588271948400e-02 1.117694357090e-01 0.000000000000e+00
  5.572212598137e-02 1.115651024155e-01 0.000000000000e+00
  5.702863447735e-02 9.259187382129e-02 0.000000000000e+00
  5.898985110241e-02 5.812050430322e-02 0.000000000000e+00
  6.072221545935e-02 1.393050055059e-02 0.000000000000e+00
  6.138131025657e-02 -3.288212206048e-02 0.000000000000e+00
  6.029899324404e-02 -7.514779348276e-02 0.000000000000e+00
  5.713692887045e-02 -1.066922030213e-01 0.000000000000e+00
  5.201333158259e-02 -1.231494058540e-01 0.000000000000e+00
  4.553792991910e-02 -1.225166710304e-01 0.000000000000e+00
  3.870297781110e-02 -1.054310444344e-01 0.000000000000e+00
  3.263202369828e-02 -7.509302078099e-02 0.000000000000e+00
  2.826071971686e-02 -3.676534664530e-02 0.000000000000e+00
  2.607227948508e-02 3.125737925617e-03 0.000000000000e+00
  2.599846270593e-02 3.811541143246e-02 0.000000000000e+00
  2.752433002121e-02 6.278872394233e-02 0.000000000000e+00
  2.994033106111e-02 7.359592890899e-02 0.000000000000e+00
  3.262260877303e-02 6.928370430932e-02 0.000000000000e+00
  3.522494493269e-02 5.097049846438e-02 0.000000000000e+00
  3.772555149256e-02 2.195560749220e-02 0.000000000000e+00
  4.034882868987e-02 -1.268937340363e-02 0.000000000000e+00
  4.343289655877e-02 -4.677542315707e-02 0.000000000000e+00
  4.731731206186e-02 -7.393753530025e-02 0.000000000000e+00
  5.229024979600e-02 -8.880110823531e-02 0.000000000000e+00
  5.858695225537e-02 -8.814713177773e-02 0.000000000000e+00
  6.639912313736e-02 -7.173061801307e-02 0.000000000000e+00
  7.585434291708e-02 -4.241902046504e-02 0.000000000000e+00
  8.695390331582e-02 -5.482493899436e-03 0.000000000000e+00
  9.949768513935e-02 3.285467881421e-02 0.000000000000e+00
  1.130487704058e-01 6.718921211119e-02 0.000000000000e+00
  1.269799450715e-01 9.442415405788e-02 0.000000000000e+00
  1.406032679149e-01 1.143736381158e-01 0.000000000000e+00
  1.533379620540e-01 1.292122726400e-01 0.000000000000e+00
  1.648500180830e-01 1.420084775284e-01 0.000000000000e+00
  1.751106515233e-01 1.550409468202e-01 0.000000000000e+00
  1.843573047551e-01 1.687145798969e-01 0.000000000000e+00
  1.929750687809e-01 1.815460529932e-01 0.000000000000e+00
  2.013313035333e-01 1.910608171995e-01 0.000000000000e+00
  2.095952769644e-01 1.949361966458e-01 0.000000000000e+00
  2.175751211515e-01 1.916847495687e-01 0.000000000000e+00
  2.246173806657e-01 1.806103342613e-01 0.000000000000e+00
  2.296286996174e-01 1.613402872337e-01 0.000000000000e+00
  2.312665405364e-01 1.335072922983e-01 0.000000000000e+00
  2.282875381221e-01 9.694802471599e-02 0.000000000000e+00
  2.199551199904e-01 5.230785171193e-02 0.000000000000e+00
  2.063442510562e-01 1.586319160343e-03 0.000000000000e+00
  1.883936696250e-01 -5.181404348191e-02 0.000000000000e+00
  1.676561968194e-01 -1.036217615907e-01 0.000000000000e+00
  1.458386104775e-01 -1.495184286316e-01 0.000000000000e+00
  1.243247881701e-01 -1.858247171728e-01 0.000000000000e+00
  1.038793409595e-01 -2.098131700915e-01 0.000000000000e+00
  8.463305927908e-02 -2.197363341681e-01 0.000000000000e+00
  6.631391557600e-02 -2.148587421859e-01 0.000000000000e+00
  4.858460152922e-02 -1.957055136169e-01 0.000000000000e+00
  3.132640873800e-02 -1.644586947755e-01 0.000000000000e+00
  1.476406615517e-02 -1.251713422697e-01 0.000000000000e+00
  -5.861772520287e-04 -8.343753422257e-02 0.000000000000e+00
  -1.408851077373e-02 -4.539390361710e-02 0.000000000000e+00
  -2.518642505646e-02 -1.628609097202e-02 0.000000000000e+00
  -3.353963154676e-02 9.112227398804e-04 0.000000000000e+00
  -3.904739201377e-02 6.321084594899e-03 0.000000000000e+00
  -4.176358193442e-02 3.150964571455e-03 0.000000000000e+00
  0.000000000000e+00 0.000000000000e+00 0.000000000000e+00
  0.000000000000e+00 0.000000000000e+00 0.000000000000e+00
  -3.598455551495e-02 -2.282405734061e-03 0.000000000000e+00
  -3.283050890952e-02 -4.161187294544e-03 0.000000000000e+00
  -2.652114954843e-02 1.357656494645e-03 0.000000000000e+00
  -1.714121904667e-02 1.714121904667e-02 0.000000000000e+00
  -4.971773118317e-03 4.344113559167e-02 0.000000000000e+00
  9.464849596264e-03 7.777195372805e-02 0.000000000000e+00
  2.548485710008e-02 1.155166720282e-01 0.000000000000e+00
  4.244313265328e-02 1.510754002255e-01 0.000000000000e+00
  5.998165649102e-02 1.791468783343e-01 0.000000000000e+00
  7.821118845755e-02 1.957029077833e-01 0.000000000000e+00
  9.771267966448e-02 1.984211903522e-01 0.000000000000e+00
  1.193015807136e-01 1.866498515234e-01 0.000000000000e+00
  1.436011489443e-01 1.611766616343e-01 0.000000000000e+00
  1.705800643203e-01 1.240405373699e-01 0.000000000000e+00
  1.992633381247e-01 7.840733148129e-02 0.000000000000e+00
  2.277766470456e-01 2.833132903242e-02 0.000000000000e+00
  2.537411597091e-01 -2.177955497204e-02 0.000000000000e+00
  2.748700476522e-01 -6.796158181671e-02 0.000000000000e+00
  2.895240435236e-01 -1.074544318964e-01 0.000000000000e+00
  2.970171441188e-01 -1.390312345092e-01 0.000000000000e+00
  2.976013396176e-01 -1.627134415443e-01 0.000000000000e+00
  2.922134954885e-01 -1.790703664653e-01 0.000000000000e+00
  2.821470653113e-01 -1.885889923257e-01 0.000000000000e+00
  2.687832307725e-01 -1.915419646447e-01 0.000000000000e+00