# vtk DataFile Version 3.0
Karman Output
ASCII
DATASET RECTILINEAR_GRID
DIMENSIONS 101 101 1
X_COORDINATES 101 float
   0.000000000000e+00   9.900990099010e-03   1.980198019802e-02   2.970297029703e-02   3.960396039604e-02   4.950495049505e-02   5.940594059406e-02   6.930693069307e-02   7.920792079208e-02   8.910891089109e-02   9.900990099010e-02   1.089108910891e-01   1.188118811881e-01   1.287128712871e-01   1.386138613861e-01   1.485148514851e-01   1.584158415842e-01   1.683168316832e-01   1.782178217822e-01   1.881188118812e-01   1.980198019802e-01   2.079207920792e-01   2.178217821782e-01   2.277227722772e-01   2.376237623762e-01   2.475247524752e-01   2.574257425743e-01   2.673267326733e-01   2.772277227723e-01   2.871287128713e-01   2.970297029703e-01   3.069306930693e-01   3.168316831683e-01   3.267326732673e-01   3.366336633663e-01   3.465346534653e-01   3.564356435644e-01   3.663366336634e-01   3.762376237624e-01   3.861386138614e-01   3.960396039604e-01   4.059405940594e-01   4.158415841584e-01   4.257425742574e-01   4.356435643564e-01   4.455445544554e-01   4.554455445545e-01   4.653465346535e-01   4.752475247525e-01   4.851485148515e-01   4.950495049505e-01   5.049504950495e-01   5.148514851485e-01   5.247524752475e-01   5.346534653465e-01   5.445544554455e-01   5.544554455446e-01   5.643564356436e-01   5.742574257426e-01   5.841584158416e-01   5.940594059406e-01   6.039603960396e-01   6.138613861386e-01   6.237623762376e-01   6.336633663366e-01   6.435643564356e-01   6.534653465347e-01   6.633663366337e-01   6.732673267327e-01   6.831683168317e-01   6.930693069307e-01   7.029702970297e-01   7.128712871287e-01   7.227722772277e-01   7.326732673267e-01   7.425742574257e-01   7.524752475248e-01   7.623762376238e-01   7.722772277228e-01   7.821782178218e-01   7.920792079208e-01   8.019801980198e-01   8.118811881188e-01   8.217821782178e-01   8.316831683168e-01   8.415841584158e-01   8.514851485149e-01   8.613861386139e-01   8.712871287129e-01   8.811881188119e-01   8.910891089109e-01   9.009900990099e-01   9.108910891089e-01   9.207920792079e-01   9.306930693069e-01   9.405940594059e-01   9.504950495050e-01   9.603960396040e-01   9.702970297030e-01   9.801980198020e-01   9.900990099010e-01
Y_COORDINATES 101 float
   0.000000000000e+00   9.900990099010e-03   1.980198019802e-02   2.970297029703e-02   3.960396039604e-02   4.950495049505e-02   5.940594059406e-02   6.930693069307e-02   7.920792079208e-02   8.910891089109e-02   9.900990099010e-02   1.089108910891e-01   1.188118811881e-01   1.287128712871e-01   1.386138613861e-01   1.485148514851e-01   1.584158415842e-01   1.683168316832e-01   1.782178217822e-01   1.881188118812e-01   1.980198019802e-01   2.079207920792e-01   2.178217821782e-01   2.277227722772e-01   2.376237623762e-01   2.475247524752e-01   2.574257425743e-01   2.673267326733e-01   2.772277227723e-01   2.871287128713e-01   2.970297029703e-01   3.069306930693e-01   3.168316831683e-01   3.267326732673e-01   3.366336633663e-01   3.465346534653e-01   3.564356435644e-01   3.663366336634e-01   3.762376237624e-01   3.861386138614e-01   3.960396039604e-01   4.059405940594e-01   4.158415841584e-01   4.257425742574e-01   4.356435643564e-01   4.455445544554e-01   4.554455445545e-01   4.653465346535e-01   4.752475247525e-01   4.851485148515e-01   4.950495049505e-01   5.049504950495e-01   5.148514851485e-01   5.247524752475e-01   5.346534653465e-01   5.445544554455e-01   5.544554455446e-01   5.643564356436e-01   5.742574257426e-01   5.841584158416e-01   5.940594059406e-01   6.039603960396e-01   6.138613861386e-01   6.237623762376e-01   6.336633663366e-01   6.435643564356e-01   6.534653465347e-01   6.633663366337e-01   6.732673267327e-01   6.831683168317e-01   6.930693069307e-01   7.029702970297e-01   7.128712871287e-01   7.227722772277e-01   7.326732673267e-01   7.425742574257e-01   7.524752475248e-01   7.623762376238e-01   7.722772277228e-01   7.821782178218e-01   7.920792079208e-01   8.019801980198e-01   8.118811881188e-01   8.217821782178e-01   8.316831683168e-01   8.415841584158e-01   8.514851485149e-01   8.613861386139e-01   8.712871287129e-01   8.811881188119e-01   8.910891089109e-01   9.009900990099e-01   9.108910891089e-01   9.207920792079e-01   9.306930693069e-01   9.405940594059e-01   9.504950495050e-01   9.603960396040e-01   9.702970297030e-01   9.801980198020e-01   9.900990099010e-01
Z_COORDINATES 1 float
  0.000000000000e+00
POINT_DATA 10201
VECTORS E_field float
  0.000000000000e+00 0.000000000000e+00 0.000000000000e+00
  0.000000000000e+00 0.000000000000e+00 0.000000000000e+00
  0.000000000000e+00 0.000000000000e+00 0.000000000000e+00
  0.000000000000e+00 0.000000000000e+00 0.000000000000e+00
  0.000000000000e+00 0.000000000000e+00 0.000000000000e+00
  0.000000000000e+00 0.000000000000e+00 0.000000000000e+00
  0.000000000000e+00 0.000000000000e+00 0.000000000000e+00
  0.000000000000e+00 0.000000000000e+00 0.000000000000e+00
  0.000000000000e+00 0.000000000000e+00 0.000000000000e+00
  0.000000000000e+00 0.000000000000e+00 0.000000000000e+00
  0.000000000000e+00 0.000000000000e+00 0.000000000000e+00
  0.000000000000e+00 0.000000000000e+00 0.000000000000e+00
  0.000000000000e+00 0.000000000000e+00 0.000000000000e+00
  0.000000000000e+00 0.000000000000e+00 0.000000000000e+00
  0.000000000000e+00 0.000000000000e+00 0.000000000000e+00
  0.000000000000e+00 0.000000000000e+00 0.000000000000e+00
  0.000000000000e+00 0.000000000000e+00 0.000000000000e+00
  0.000000000000e+00 0.000000000000e+00 0.000000000000e+00
  0.000000000000e+00 0.000000000000e+00 0.000000000000e+00
  0.000000000000e+00 0.000000000000e+00 0.000000000000e+00
  0.000000000000e+00 0.000000000000e+00 0.000000000000e+00
  0.000000000000e+00 0.000000000000e+00 0.000000000000e+00
  0.000000000000e+00 0.000000000000e+00 0.000000000000e+00
  0.000000000000e+00 0.000000000000e+00 0.000000000000e+00
  0.000000000000e+00 0.000000000000e+00 0.000000000000e+00
  0.000000000000e+00 0.000000000000e+00 0.000000000000e+00
  0.000000000000e+00 0.000000000000e+00 0.000000000000e+00
  0.000000000000e+00 0.000000000000e+00 0.000000000000e+00
  0.000000000000e+00 0.000000000000e+00 0.000000000000e+00
  0.000000000000e+00 0.000000000000e+00 0.000000000000e+00
  0.000000000000e+00 0.000000000000e+00 0.000000000000e+00
  0.000000000000e+00 0.000000000000e+00 0.000000000000e+00
  0.000000000000e+00 0.000000000000e+00 0.000000000000e+00
  0.000000000000e+00 0.000000000000e+00 0.000000000000e+00
  0.000000000000e+00 0.000000000000e+00 0.000000000000e+00
  0.000000000000e+00 0.000000000000e+00 0.000000000000e+00
  0.000000000000e+00 0.000000000000e+00 0.000000000000e+00
  0.000000000000e+00 0.000000000000e+00 0.000000000000e+00
  0.000000000000e+00 0.000000000000e+00 0.000000000000e+00
  0.000000000000e+00 0.000000000000e+00 0.000000000000e+00
  0.000000000000e+00 0.000000000000e+00 0.000000000000e+00
  0.000000000000e+00 0.000000000000e+00 0.000000000000e+00
  0.000000000000e+00 0.000000000000e+00 0.000000000000e+00
  0.000000000000e+00 0.000000000000e+00 0.000000000000e+00
  0.000000000000e+00 0.000000000000e+00 0.000000000000e+00
  0.000000000000e+00 0.000000000000e+00 0.000000000000e+00
  0.000000000000e+00 0.000000000000e+00 0.000000000000e+00
  0.000000000000e+00 0.000000000000e+00 0.000000000000e+00
  0.000000000000e+00 0.000000000000e+00 0.000000000000e+00
  0.000000000000e+00 0.000000000000e+00 0.000000000000e+00
  0.000000000000e+00 0.000000000000e+00 0.000000000000e+00
  0.000000000000e+00 0.000000000000e+00 0.000000000000e+00
  0.000000000000e+00 0.000000000000e+00 0.000000000000e+00
  0.000000000000e+00 0.000000000000e+00 0.000000000000e+00
  0.000000000000e+00 0.000000000000e+00 0.000000000000e+00
  0.000000000000e+00 0.000000000000e+00 0.000000000000e+00
  0.000000000000e+00 0.000000000000e+00 0.000000000000e+00
  0.000000000000e+00 0.000000000000e+00 0.000000000000e+00
  0.000000000000e+00 0.000000000000e+00 0.000000000000e+00
  0.000000000000e+00 0.000000000000e+00 0.000000000000e+00
  0.000000000000e+00 0.000000000000e+00 0.000000000000e+00
  0.000000000000e+00 0.000000000000e+00 0.000000000000e+00
  0.000000000000e+00 0.000000000000e+00 0.000000000000e+00
  0.000000000000e+00 0.000000000000e+00 0.000000000000e+00
  0.000000000000e+00 0.000000000000e+00 0.000000000000e+00
  0.000000000000e+00 0.000000000000e+00 0.000000000000e+00
  0.000000000000e+00 0.000000000000e+00 0.000000000000e+00
  0.000000000000e+00 0.000000000000e+00 0.000000000000e+00
  0.000000000000e+00 0.000000000000e+00 0.000000000000e+00
  0.000000000000e+00 0.000000000000e+00 0.000000000000e+00
  0.000000000000e+00 0.000000000000e+00 0.000000000000e+00
  0.000000000000e+00 0.000000000000e+00 0.000000000000e+00
  0.000000000000e+00 0.000000000000e+00 0.000000000000e+00
  0.000000000000e+00 0.000000000000e+00 0.000000000000e+00
  0.000000000000e+00 0.000000000000e+00 0.000000000000e+00
  0.000000000000e+00 0.000000000000e+00 0.000000000000e+00
  0.000000000000e+00 0.000000000000e+00 0.000000000000e+00
  0.000000000000e+00 0.000000000000e+00 0.000000000000e+00
  0.000000000000e+00 0.000000000000e+00 0.000000000000e+00
  0.000000000000e+00 0.000000000000e+00 0.000000000000e+00
  0.000000000000e+00 0.000000000000e+00 0.000000000000e+00
  0.000000000000e+00 0.000000000000e+00 0.000000000000e+00
  0.000000000000e+00 0.000000000000e+00 0.000000000000e+00
  0.000000000000e+00 0.000000000000e+00 0.000000000000e+00
  0.000000000000e+00 0.000000000000e+00 0.000000000000e+00
  0.000000000000e+00 0.000000000000e+00 0.000000000000e+00
  0.000000000000e+00 0.000000000000e+00 0.000000000000e+00
  0.000000000000e+00 0.000000000000e+00 0.000000000000e+00
  0.000000000000e+00 0.000000000000e+00 0.000000000000e+00
  0.000000000000e+00 0.000000000000e+00 0.000000000000e+00
  0.000000000000e+00 0.000000000000e+00 0.000000000000e+00
  0.000000000000e+00 0.000000000000e+00 0.000000000000e+00
  0.000000000000e+00 0.000000000000e+00 0.000000000000e+00
  0.000000000000e+00 0.000000000000e+00 0.000000000000e+00
  0.000000000000e+00 0.000000000000e+00 0.000000000000e+00
  0.000000000000e+00 0.000000000000e+00 0.000000000000e+00
  0.000000000000e+00 0.000000000000e+00 0.000000000000e+00
  0.000000000000e+00 0.000000000000e+00 0.000000000000e+00
  0.000000000000e+00 0.000000000000e+00 0.000000000000e+00
  0.000000000000e+00 0.000000000000e+00 0.000000000000e+00
  0.000000000000e+00 0.000000000000e+00 0.000000000000e+00
  0.000000000000e+00 0.000000000000e+00 0.000000000000e+00
  -8.714121362271e-03 8.714121362271e-03 0.000000000000e+00
  -9.087997128558e-03 2.199299240450e-02 0.000000000000e+00
  -9.910615361934e-03 2.419637303064e-02 0.000000000000e+00
  -1.127643599057e-02 1.207320158573e-02 0.000000000000e+00
  -1.321292226100e-02 -1.285139469769e-02 0.000000000000e+00
  -1.560142654745e-02 -4.478257136369e-02 0.000000000000e+00
  -1.814408136720e-02 -7.567396226808e-02 0.000000000000e+00
  -2.039903752663e-02 -9.812105659497e-02 0.000000000000e+00
  -2.187933531818e-02 -1.080813838507e-01 0.000000000000e+00
  -2.218311143791e-02 -1.063051188434e-01 0.000000000000e+00
  -2.110732854262e-02 -9.778665024157e-02 0.000000000000e+00
  -1.870259622625e-02 -8.938596784978e-02 0.000000000000e+00
  -1.525172977753e-02 -8.664328117843e-02 0.000000000000e+00
  -1.118703055448e-02 -9.123441925294e-02 0.000000000000e+00
  -6.983849004989e-03 -1.002129146859e-01 0.000000000000e+00
  -3.069880672036e-03 -1.073047227871e-01 0.000000000000e+00
  2.272924663869e-04 -1.055532594418e-01 0.000000000000e+00
  2.695327017804e-03 -9.007368643004e-02 0.000000000000e+00
  4.231819531091e-03 -5.979743129878e-02 0.000000000000e+00
  4.837017952314e-03 -1.771126649226e-02 0.000000000000e+00
  4.612478406857e-03 3.018593465465e-02 0.000000000000e+00
  3.759779301036e-03 7.655394657669e-02 0.000000000000e+00
  2.565468915443e-03 1.143530915706e-01 0.000000000000e+00
  1.361315628671e-03 1.380934927827e-01 0.000000000000e+00
  4.612310845463e-04 1.446409923311e-01 0.000000000000e+00
  9.113571851237e-05 1.336609694244e-01 0.000000000000e+00
  3.368440923368e-04 1.077227952341e-01 0.000000000000e+00
  1.131808314395e-03 7.197766325203e-02 0.000000000000e+00
  2.291560360647e-03 3.330465937063e-02 0.000000000000e+00
  3.581809568841e-03 -1.062861524586e-03 0.000000000000e+00
  4.792389734200e-03 -2.522009968008e-02 0.000000000000e+00
  5.787254308803e-03 -3.617776727755e-02 0.000000000000e+00
  6.512531743071e-03 -3.483299238083e-02 0.000000000000e+00
  6.964400066869e-03 -2.584027066663e-02 0.000000000000e+00
  7.136900496218e-03 -1.615318665042e-02 0.000000000000e+00
  6.978719221748e-03 -1.248530113306e-02 0.000000000000e+00
  6.383881694676e-03 -1.849988837858e-02 0.000000000000e+00
  5.226098480334e-03 -3.289318554900e-02 0.000000000000e+00
  3.426408557750e-03 -4.938594019489e-02 0.000000000000e+00
  1.026967303221e-03 -5.890850130122e-02 0.000000000000e+00
  -1.762684943967e-03 -5.324500728482e-02 0.000000000000e+00
  -4.573713161753e-03 -2.863463724465e-02 0.000000000000e+00
  -6.949109920958e-03 1.222620751614e-02 0.000000000000e+00
  -8.463125295377e-03 6.061892744369e-02 0.000000000000e+00
  -8.853713910366e-03 1.044229570609e-01 0.000000000000e+00
  -8.122597544768e-03 1.318009480387e-01 0.000000000000e+00
  -6.562836245603e-03 1.345845184683e-01 0.000000000000e+00
  -4.694766776698e-03 1.103662518304e-01 0.000000000000e+00
  -3.122187309850e-03 6.294941699010e-02 0.000000000000e+00
  -2.351038631415e-03 1.343361915666e-03 0.000000000000e+00
  -2.630274456131e-03 -6.226587559941e-02 0.000000000000e+00
  -3.870583244859e-03 -1.151286807977e-01 0.000000000000e+00
  -5.670898656159e-03 -1.467182746028e-01 0.000000000000e+00
  -7.444411287034e-03 -1.512184079010e-01 0.000000000000e+00
  -8.600178247038e-03 -1.291125812130e-01 0.000000000000e+00
  -8.717780471030e-03 -8.725400446248e-02 0.000000000000e+00
  -7.657924431795e-03 -3.707553958969e-02 0.000000000000e+00
  -5.578273397855e-03 8.779363851939e-03 0.000000000000e+00
  -2.859502713853e-03 4.038345312058e-02 0.000000000000e+00
  2.298594918482e-05 5.354725599886e-02 0.000000000000e+00
  2.632292872395e-03 5.068449428582e-02 0.000000000000e+00
  4.664827987256e-03 3.914686144488e-02 0.000000000000e+00
  5.984542903167e-03 2.778341427269e-02 0.000000000000e+00
  6.600482253250e-03 2.325473599906e-02 0.000000000000e+00
  6.611459287071e-03 2.763662824951e-02 0.000000000000e+00
  6.148480302486e-03 3.812634950451e-02 0.000000000000e+00
  5.338788333652e-03 4.866612377406e-02 0.000000000000e+00
  4.300211256241e-03 5.255958991495e-02 0.000000000000e+00
  3.158354904375e-03 4.496777959212e-02 0.000000000000e+00
  2.068401451337e-03 2.446896508434e-02 0.000000000000e+00
  1.221279533102e-03 -6.625193090796e-03 0.000000000000e+00
  8.211838723647e-04 -4.305134561130e-02 0.000000000000e+00
  1.035395137496e-03 -7.805575527426e-02 0.000000000000e+00
  1.932699879484e-03 -1.050320078841e-01 0.000000000000e+00
  3.436133455857e-03 -1.188997154026e-01 0.000000000000e+00
  5.313330687476e-03 -1.169690681216e-01 0.000000000000e+00
  7.213067991581e-03 -9.925952565021e-02 0.000000000000e+00
  8.736406226417e-03 -6.839709407759e-02 0.000000000000e+00
  9.516075006009e-03 -2.921341182836e-02 0.000000000000e+00
  9.276853329886e-03 1.196182182435e-02 0.000000000000e+00
  7.863154921949e-03 4.842387612519e-02 0.000000000000e+00
  5.239514163967e-03 7.463384254280e-02 0.000000000000e+00
  1.483020451877e-03 8.785269297180e-02 0.000000000000e+00
  -3.214547619767e-03 8.920823780091e-02 0.000000000000e+00
  -8.532496424612e-03 8.349811368338e-02 0.000000000000e+00
  -1.401218347291e-02 7.746036129585e-02 0.000000000000e+00
  -1.908092711500e-02 7.699537101884e-02 0.000000000000e+00
  -2.312856288544e-02 8.449054361453e-02 0.000000000000e+00
  -2.563104204416e-02 9.754344231937e-02 0.000000000000e+00
  -2.628553528593e-02 1.098245130840e-01 0.000000000000e+00
  -2.510469236106e-02 1.138061813493e-01 0.000000000000e+00
  -2.242624162961e-02 1.041543511950e-01 0.000000000000e+00
  -1.882627100064e-02 8.024859342454e-02 0.000000000000e+00
  -1.496470131745e-02 4.673320290200e-02 0.000000000000e+00
  -1.141930145964e-02 1.192619362614e-02 0.000000000000e+00
  -8.566998504372e-03 -1.518049122622e-02 0.000000000000e+00
  -6.548877329042e-03 -2.811619077766e-02 0.000000000000e+00
  -5.320216988459e-03 -2.516471577826e-02 0.000000000000e+00
  -4.754747410137e-03 -9.923369000111e-03 0.000000000000e+00
  0.000000000000e+00 0.000000000000e+00 0.000000000000e+00
  0.000000000000e+00 0.000000000000e+00 0.000000000000e+00
  -2.199299240450e-02 9.087997128558e-03 0.000000000000e+00
  -2.319827592005e-02 2.319827592005e-02 0.000000000000e+00
  -2.580961631220e-02 2.642504814061e-02 0.000000000000e+00
  -3.007319059618e-02 1.547392138838e-02 0.000000000000e+00
  -3.603750811330e-02 -8.351310712795e-03 0.000000000000e+00
  -4.333224285959e-02 -3.959941631584e-02 0.000000000000e+00
  -5.107788681772e-02 -7.056881853806e-02 0.000000000000e+00
  -5.798940140691e-02 -9.405972957637e-02 0.000000000000e+00
  -6.266040083958e-02 -1.059914136450e-01 0.000000000000e+00
  -6.393599919503e-02 -1.068157145738e-01 0.000000000000e+00
  -6.123799972911e-02 -1.010498368723e-01 0.000000000000e+00
  -5.472090067877e-02 -9.504461258572e-02 0.000000000000e+00
  -4.520827474486e-02 -9.394812882512e-02 0.000000000000e+00
  -3.395154997958e-02 -9.925099559456e-02 0.000000000000e+00
  -2.231878171626e-02 -1.080322881571e-01 0.000000000000e+00
  -1.152808753556e-02 -1.141900118295e-01 0.000000000000e+00
  -2.493330037214e-03 -1.109999010361e-01 0.000000000000e+00
  4.217476916816e-03 -9.380588634117e-02 0.000000000000e+00
  8.358360634527e-03 -6.174260761865e-02 0.000000000000e+00
  9.971068238391e-03 -1.798399619748e-02 0.000000000000e+00
  9.367764258113e-03 3.128650788560e-02 0.000000000000e+00
  7.119269227882e-03 7.855456748179e-02 0.000000000000e+00
  4.012615459966e-03 1.166534348190e-01 0.000000000000e+00
  9.464201839555e-04 1.400634980971e-01 0.000000000000e+00
  -1.235459046264e-03 1.457529507911e-01 0.000000000000e+00
  -1.930389445292e-03 1.336140367295e-01 0.000000000000e+00
  -9.162287469861e-04 1.065098588569e-01 0.000000000000e+00
  1.616546752455e-03 6.986285990776e-02 0.000000000000e+00
  5.159214753620e-03 3.071704266750e-02 0.000000000000e+00
  9.070217577168e-03 -3.676496853158e-03 0.000000000000e+00
  1.277523706747e-02 -2.752206400708e-02 0.000000000000e+00
  1.590013063139e-02 -3.799556108886e-02 0.000000000000e+00
  1.828795079906e-02 -3.612829617103e-02 0.000000000000e+00
  1.990634547948e-02 -2.661522987979e-02 0.000000000000e+00
  2.070273698144e-02 -1.634711936694e-02 0.000000000000e+00
  2.048915234433e-02 -1.191960250202e-02 0.000000000000e+00
  1.892622755955e-02 -1.690782469269e-02 0.000000000000e+00
  1.563181991425e-02 -3.003305836690e-02 0.000000000000e+00
  1.038172160283e-02 -4.519627912993e-02 0.000000000000e+00
  3.322139344911e-03 -5.363913883427e-02 0.000000000000e+00
  -4.903555773443e-03 -4.749902235860e-02 0.000000000000e+00
  -1.318927519961e-02 -2.328387448960e-02 0.000000000000e+00
  -2.018295186501e-02 1.624451823358e-02 0.000000000000e+00
  -2.463883105284e-02 6.257051134677e-02 0.000000000000e+00
  -2.580096061308e-02 1.040240914001e-01 0.000000000000e+00
  -2.368728883389e-02 1.293550256272e-01 0.000000000000e+00
  -1.916158166713e-02 1.309449724868e-01 0.000000000000e+00
  -1.374165538169e-02 1.067178021250e-01 0.000000000000e+00
  -9.180743312258e-03 6.046437521496e-02 0.000000000000e+00
  -6.944185651819e-03 8.206973902307e-04 0.000000000000e+00
  -7.751995031897e-03 -6.065616585252e-02 0.000000000000e+00
  -1.134561444453e-02 -1.119044623501e-01 0.000000000000e+00
  -1.656392554913e-02 -1.429238665641e-01 0.000000000000e+00
  -2.170515023917e-02 -1.480980786678e-01 0.000000000000e+00
  -2.505010690515e-02 -1.277321868835e-01 0.000000000000e+00
  -2.536865016094e-02 -8.819825338359e-02 0.000000000000e+00
  -2.224520905102e-02 -4.031458789105e-02 0.000000000000e+00
  -1.613278627138e-02 3.826338269937e-03 0.000000000000e+00
  -8.145680849631e-03 3.463060253460e-02 0.000000000000e+00
  3.109569346704e-04 4.796098008514e-02 0.000000000000e+00
  7.933739943922e-03 4.603868022537e-02 0.000000000000e+00
  1.380828442768e-02 3.588559587518e-02 0.000000000000e+00
  1.752165701432e-02 2.601159231717e-02 0.000000000000e+00
  1.910542066801e-02 2.282685493530e-02 0.000000000000e+00
  1.887466988120e-02 2.828428305613e-02 0.000000000000e+00
  1.725207378001e-02 3.956426977738e-02 0.000000000000e+00
  1.464971488853e-02 5.064025435779e-02 0.000000000000e+00
  1.143891018738e-02 5.483484110767e-02 0.000000000000e+00
  7.990771289436e-03 4.728252364809e-02 0.000000000000e+00
  4.737155647921e-03 2.649779012235e-02 0.000000000000e+00
  2.193749853699e-03 -5.263490416632e-03 0.000000000000e+00
  9.060643952299e-04 -4.272526716639e-02 0.000000000000e+00
  1.318195482861e-03 -7.900817607199e-02 0.000000000000e+00
  3.607835039461e-03 -1.072665313850e-01 0.000000000000e+00
  7.558263559009e-03 -1.221190539976e-01 0.000000000000e+00
  1.253197532293e-02 -1.206006385220e-01 0.000000000000e+00
  1.756996643060e-02 -1.025656836615e-01 0.000000000000e+00
  2.158478687172e-02 -7.062909474226e-02 0.000000000000e+00
  2.357491177306e-02 -2.975120484462e-02 0.000000000000e+00
  2.278641332269e-02 1.352733496711e-02 0.000000000000e+00
  1.878597450905e-02 5.227250020401e-02 0.000000000000e+00
  1.146307902286e-02 8.073175470815e-02 0.000000000000e+00
  1.014669825517e-03 9.595968371589e-02 0.000000000000e+00
  -1.204025858295e-02 9.885374353694e-02 0.000000000000e+00
  -2.681292329545e-02 9.394322146469e-02 0.000000000000e+00
  -4.201537667501e-02 8.769739394239e-02 0.000000000000e+00
  -5.602861843808e-02 8.584032377746e-02 0.000000000000e+00
  -6.712273751797e-02 9.078734570624e-02 0.000000000000e+00
  -7.381123026976e-02 1.004376121382e-01 0.000000000000e+00
  -7.523720884883e-02 1.090108150860e-01 0.000000000000e+00
  -7.144241115505e-02 1.096442387286e-01 0.000000000000e+00
  -6.339479587334e-02 9.759022780253e-02 0.000000000000e+00
  -5.274196523861e-02 7.255991555330e-02 0.000000000000e+00
  -4.137158732132e-02 3.918993317274e-02 0.000000000000e+00
  -3.093892698599e-02 5.491403162268e-03 0.000000000000e+00
  -2.252846607809e-02 -2.000846462552e-02 0.000000000000e+00
  -1.655322088077e-02 -3.128158375101e-02 0.000000000000e+00
  -1.289587113932e-02 -2.688533288694e-02 0.000000000000e+00
  -1.120433751711e-02 -1.045975509195e-02 0.000000000000e+00
  0.000000000000e+00 0.000000000000e+00 0.000000000000e+00
  0.000000000000e+00 0.000000000000e+00 0.000000000000e+00
  -2.419637303064e-02 9.910615361934e-03 0.000000000000e+00
  -2.642504814061e-02 2.580961631220e-02 0.000000000000e+00
  -3.114834996809e-02 3.114834996809e-02 0.000000000000e+00
  -3.867090132034e-02 2.253674519713e-02 0.000000000000e+00
  -4.898124324209e-02 8.605249173247e-04 0.000000000000e+00
  -6.143144063055e-02 -2.906631981120e-02 0.000000000000e+00
  -7.461215873504e-02 -6.017555298007e-02 0.000000000000e+00
  -8.651693911645e-02 -8.563670016376e-02 0.000000000000e+00
  -9.497571814383e-02 -1.012846645976e-01 0.000000000000e+00
  -9.822036703038e-02 -1.070022163792e-01 0.000000000000e+00
  -9.537728726490e-02 -1.064044142983e-01 0.000000000000e+00
  -8.670240104390e-02 -1.048820204311e-01 0.000000000000e+00
  -7.347933511789e-02 -1.068464128397e-01 0.000000000000e+00
  -5.764150706448e-02 -1.134472643987e-01 0.000000000000e+00
  -4.128122468281e-02 -1.218290699980e-01 0.000000000000e+00
  -2.622492309324e-02 -1.262402257590e-01 0.000000000000e+00
  -1.378660373674e-02 -1.204227639615e-01 0.000000000000e+00
  -4.709573750482e-03 -1.001708603560e-01 0.000000000000e+00
  7.720248121044e-04 -6.500011588410e-02 0.000000000000e+00
  2.841538401816e-03 -1.840870912561e-02 0.000000000000e+00
  2.034125056453e-03 3.312193813937e-02 0.000000000000e+00
  -8.044440223492e-04 8.180620133706e-02 0.000000000000e+00
  -4.579741937277e-03 1.202837526466e-01 0.000000000000e+00
  -8.080055540187e-03 1.429996891484e-01 0.000000000000e+00
  -1.018683256028e-02 1.471054159900e-01 0.000000000000e+00
  -1.011575992401e-02 1.328854292933e-01 0.000000000000e+00
  -7.599317015175e-03 1.037078626860e-01 0.000000000000e+00
  -2.927186154361e-03 6.545994971848e-02 0.000000000000e+00
  3.184420839737e-03 2.546567786163e-02 0.000000000000e+00
  9.846264433789e-03 -8.997978464609e-03 0.000000000000e+00
  1.626581002620e-02 -3.232514747771e-02 0.000000000000e+00
  2.191905820056e-02 -4.197061935511e-02 0.000000000000e+00
  2.655821328867e-02 -3.918021315769e-02 0.000000000000e+00
  3.006855299143e-02 -2.869204727064e-02 0.000000000000e+00
  3.226149658334e-02 -1.725963705931e-02 0.000000000000e+00
  3.272513059211e-02 -1.125713416229e-02 0.000000000000e+00
  3.083250024491e-02 -1.411473786803e-02 0.000000000000e+00
  2.593878945756e-02 -2.463802670621e-02 0.000000000000e+00
  1.770871947787e-02 -3.711114241784e-02 0.000000000000e+00
  6.443485123965e-03 -4.339945881383e-02 0.000000000000e+00
  -6.744698879947e-03 -3.632482308677e-02 0.000000000000e+00
  -2.002070459875e-02 -1.289634838851e-02 0.000000000000e+00
  -3.119716881688e-02 2.402713330658e-02 0.000000000000e+00
  -3.830188586810e-02 6.634849286426e-02 0.000000000000e+00
  -4.017279887607e-02 1.032791528528e-01 0.000000000000e+00
  -3.688059635117e-02 1.246940903031e-01 0.000000000000e+00
  -2.981466700310e-02 1.240142717307e-01 0.000000000000e+00
  -2.136525746197e-02 9.977916745614e-02 0.000000000000e+00
  -1.426692354050e-02 5.574376422456e-02 0.000000000000e+00
  -1.079244288284e-02 -1.697297091335e-04 0.000000000000e+00
  -1.205435743658e-02 -5.759601471854e-02 0.000000000000e+00
  -1.765042042381e-02 -1.057749311220e-01 0.000000000000e+00
  -2.577952628122e-02 -1.357059810025e-01 0.000000000000e+00
  -3.379383020587e-02 -1.421604359028e-01 0.000000000000e+00
  -3.900206074457e-02 -1.251166428180e-01 0.000000000000e+00
  -3.945697093937e-02 -9.004034442283e-02 0.000000000000e+00
  -3.447637470082e-02 -4.657653463812e-02 0.000000000000e+00
  -2.475185552511e-02 -5.748657357631e-03 0.000000000000e+00
  -1.204804191030e-02 2.351467874905e-02 0.000000000000e+00
  1.369146469540e-03 3.720307738739e-02 0.000000000000e+00
  1.336260691329e-02 3.718033921381e-02 0.000000000000e+00
  2.240831774058e-02 2.982368138017e-02 0.000000000000e+00
  2.780981640217e-02 2.295863542202e-02 0.000000000000e+00
  2.963342036921e-02 2.247244411160e-02 0.000000000000e+00
  2.845526587725e-02 3.004759909392e-02 0.000000000000e+00
  2.505984738955e-02 4.281896828783e-02 0.000000000000e+00
  2.021451782719e-02 5.483324427684e-02 0.000000000000e+00
  1.458207047346e-02 5.948510322958e-02 0.000000000000e+00
  8.757414424633e-03 5.190505646537e-02 0.000000000000e+00
  3.357011764014e-03 3.052927560327e-02 0.000000000000e+00
  -9.289148201616e-04 -2.465643521098e-03 0.000000000000e+00
  -3.387066457691e-03 -4.177727696684e-02 0.000000000000e+00
  -3.443439518359e-03 -8.031192429891e-02 0.000000000000e+00
  -8.806953872898e-04 -1.108151668459e-01 0.000000000000e+00
  3.988404982210e-03 -1.273899474258e-01 0.000000000000e+00
  1.028384092225e-02 -1.265988927978e-01 0.000000000000e+00
  1.669248262210e-02 -1.080140621932e-01 0.000000000000e+00
  2.172911542138e-02 -7.423216945093e-02 0.000000000000e+00
  2.402344317270e-02 -3.043258278862e-02 0.000000000000e+00
  2.253251527610e-02 1.648813925807e-02 0.000000000000e+00
  1.663430402296e-02 5.921034597984e-02 0.000000000000e+00
  6.133823807397e-03 9.161728463407e-02 0.000000000000e+00
  -8.741173465459e-03 1.103975602602e-01 0.000000000000e+00
  -2.729293723366e-02 1.160225591693e-01 0.000000000000e+00
  -4.826082543882e-02 1.125149587500e-01 0.000000000000e+00
  -6.976688703283e-02 1.058341716307e-01 0.000000000000e+00
  -8.941886886035e-02 1.013687696798e-01 0.000000000000e+00
  -1.046475737487e-01 1.015817237722e-01 0.000000000000e+00
  -1.132457760841e-01 1.049299291593e-01 0.000000000000e+00
  -1.139516750044e-01 1.066503755643e-01 0.000000000000e+00
  -1.068531068612e-01 1.011113124134e-01 0.000000000000e+00
  -9.342810607381e-02 8.465053804864e-02 0.000000000000e+00
  -7.617451155283e-02 5.759318015150e-02 0.000000000000e+00
  -5.795086441659e-02 2.456264352100e-02 0.000000000000e+00
  -4.126804320249e-02 -6.996788735426e-03 0.000000000000e+00
  -2.778115639486e-02 -2.941762044335e-02 0.000000000000e+00
  -1.813677540654e-02 -3.749205411881e-02 0.000000000000e+00
  -1.218213661453e-02 -3.028685105260e-02 0.000000000000e+00
  -9.406071318494e-03 -1.152583584455e-02 0.000000000000e+00
  0.000000000000e+00 0.000000000000e+00 0.000000000000e+00
  0.000000000000e+00 0.000000000000e+00 0.000000000000e+00
  -1.207320158573e-02 1.127643599057e-02 0.000000000000e+00
  -1.547392138838e-02 3.007319059618e-02 0.000000000000e+00
  -2.253674519713e-02 3.867090132034e-02 0.000000000000e+00
  -3.352272891214e-02 3.352272891214e-02 0.000000000000e+00
  -4.828501808178e-02 1.494717229370e-02 0.000000000000e+00
  -6.590374154955e-02 -1.308404633136e-02 0.000000000000e+00
  -8.455187083467e-02 -4.432897907030e-02 0.000000000000e+00
  -1.017029228765e-01 -7.242744165032e-02 0.000000000000e+00
  -1.146583846359e-01 -9.307968232426e-02 0.000000000000e+00
  -1.212332343896e-01 -1.053877000123e-01 0.000000000000e+00
  -1.203544280951e-01 -1.117408167253e-01 0.000000000000e+00
  -1.123470608231e-01 -1.162278714971e-01 0.000000000000e+00
  -9.880594637828e-02 -1.222647421445e-01 0.000000000000e+00
  -8.211944867188e-02 -1.305532608537e-01 0.000000000000e+00
  -6.484253428395e-02 -1.383602703126e-01 0.000000000000e+00
  -4.914567336427e-02 -1.404621879536e-01 0.000000000000e+00
  -3.649310069023e-02 -1.312916937974e-01 0.000000000000e+00
  -2.757980975320e-02 -1.072922514434e-01 0.000000000000e+00
  -2.244998217368e-02 -6.849015093884e-02 0.000000000000e+00
  -2.067654028187e-02 -1.876162955240e-02 0.000000000000e+00
  -2.150824057958e-02 3.511397220924e-02 0.000000000000e+00